36
Energy = -1006.338017618
N    -2.8273526    0.0103886   -1.9705736 
C    -2.0643071    0.6715771   -0.9237727 
C    -2.7895287    0.6181534    0.4208083 
C    -2.8680799   -0.7509270    1.0748612 
O    -2.6801887   -0.8964958    2.2698509 
N    -3.1717203   -1.7582124    0.2379123 
C    -0.6636707    0.0530522   -0.9321705 
O    -0.2149907   -0.4198965   -1.9619191 
N     0.0333897    0.1256066    0.2176273 
C     1.3929289   -0.3464958    0.3143774 
C     2.3784295    0.7958756    0.6125312 
C     3.7914513    0.2657049    0.8035383 
C     2.3299870    1.8330306   -0.4975519 
C     1.4626535   -1.3895957    1.4119480 
O     1.0500379   -1.2256762    2.5281287 
O     2.0569254   -2.5193775    1.0143528 
H    -3.5386784    0.6222148   -2.3443727 
H    -2.1835864   -0.2393160   -2.7143535 
H    -1.8873103    1.7343017   -1.1518406 
H    -2.3351313    1.2934284    1.1446852 
H    -3.8116814    0.9774447    0.2689596 
H    -3.1968903   -2.6937531    0.6022009 
H    -3.2555588   -1.5619423   -0.7540089 
H    -0.3936775    0.4780740    1.0606185 
H     1.6374532   -0.8085548   -0.6418689 
H     2.0485184    1.2589602    1.5493935 
H     4.4806069    1.0896492    0.9940575 
H     3.8642458   -0.4243869    1.6460516 
H     4.1354850   -0.2582268   -0.0919375 
H     2.9911587    2.6694336   -0.2648166 
H     1.3237294    2.2296766   -0.6352060 
H     2.6534675    1.4001426   -1.4472399 
H     2.0713469   -3.1119813    1.7776282 
C    -0.8535620    0.4803803    3.8931016 
O    -0.6839403    1.2734151    3.0597188 
O    -1.0032507   -0.2585007    4.7628309 
