32
Energy = -837.7285435593
N    -1.4492199    2.1287266    0.0372577 
C    -1.2564640    0.8328850    0.6612175 
C    -1.9958162   -0.2477678   -0.1414660 
C    -1.7285771   -1.6445317    0.3983557 
C    -3.4894635    0.0416552   -0.1705058 
C     0.1987109    0.4350337    0.8996334 
O     0.5868714    0.0025886    1.9708026 
N     1.0306833    0.5737627   -0.1592296 
C     2.4278622    0.2632015   -0.0483679 
C     2.7096584   -1.2347655   -0.1665124 
C     3.1742415    1.0311748   -1.1077224 
O     2.6621712    1.6388042   -2.0130482 
O     4.4966609    0.9486981   -0.9497989 
H    -1.2025452    2.1204212   -0.9433170 
H    -0.9105813    2.8501834    0.4949914 
H    -1.6893751    0.8662180    1.6654630 
H    -1.6135684   -0.1990120   -1.1702011 
H    -0.6722105   -1.9127292    0.3517015 
H    -2.0407958   -1.7225785    1.4424905 
H    -2.2889065   -2.3834965   -0.1772829 
H    -3.6955165    1.0448591   -0.5406391 
H    -3.9092389   -0.0377670    0.8361474 
H    -4.0078059   -0.6803476   -0.8046913 
H     0.7185759    1.0169023   -1.0077836 
H     2.7844065    0.5986816    0.9304513 
H     3.7733388   -1.4407692   -0.0522803 
H     2.3739487   -1.6118594   -1.1339918 
H     2.1632257   -1.7482274    0.6229883 
H     4.9019026    1.4378361   -1.6768111 
C     0.5550607    1.9253906   -3.9314495 
O    -0.2104315    1.6289640   -3.1117974 
O     1.2917454    2.2201490   -4.7681338 
