36
Energy = -874.1124180235
N     1.2686869    0.1697759   -1.9487200 
C     1.2775533   -0.7015445   -0.7948533 
C     1.9609207   -0.0461498    0.4063151 
C     3.4827887    0.0807361    0.3430169 
C     3.9737982    1.1160531   -0.6592386 
C     4.0185953    0.3995131    1.7326906 
C    -0.0755371   -1.2419254   -0.3202381 
O    -0.1476150   -2.1641217    0.4685536 
N    -1.1705685   -0.6259520   -0.8242771 
C    -2.4988200   -1.0003462   -0.4074740 
C    -3.0446247   -0.1550765    0.6969375 
C    -3.2000200   -0.3836362    2.0360062 
N    -3.6966768    0.7271309    2.6579663 
C    -3.8438110    1.6205770    1.7139579 
N    -3.4612429    1.1402567    0.5066627 
C    -3.4232077   -0.8758123   -1.5995028 
O    -3.3519792    0.0279022   -2.3947318 
O    -4.3487776   -1.8278836   -1.6444366 
H     0.7683935   -0.2062975   -2.7402086 
H     0.9465250    1.1039216   -1.7412112 
H     1.8461383   -1.6022188   -1.0506289 
H     1.5152177    0.9446235    0.5710974 
H     1.7025068   -0.6493606    1.2788963 
H     3.8770609   -0.8988873    0.0456531 
H     3.6470998    0.8860536   -1.6717449 
H     5.0646476    1.1737948   -0.6469352 
H     3.5908752    2.1082917   -0.3986763 
H     5.1082856    0.4699274    1.7266846 
H     3.6282504    1.3588495    2.0853462 
H     3.7316327   -0.3638373    2.4588161 
H    -1.0674073    0.1299540   -1.4790094 
H    -2.4564963   -2.0308559   -0.0567836 
H    -2.9638236   -1.2867012    2.5759724 
H    -4.2234788    2.6221009    1.8445500 
H    -3.5050518    1.6163304   -0.3784126 
H    -4.9298380   -1.6351855   -2.3920399 
