43
Energy = -1010.887736547
N    -2.4782820    2.5847976    0.9763346 
C    -2.3071169    1.1505783    0.8929405 
C    -3.5311921    0.4744350    0.2368046 
C    -4.7557806    0.6458226    1.1203614 
C    -3.7839823    1.0122843   -1.1636221 
C    -1.0393017    0.7723713    0.1292086 
O    -0.4822856    1.5588085   -0.6184880 
N    -0.5976132   -0.4891893    0.3268715 
C     0.4432166   -1.0719138   -0.4768553 
C     1.7900524   -1.1896717    0.2483973 
C     2.2798437    0.1437898    0.7876594 
C     3.6958195    0.0924299    1.3453123 
C     4.7679030   -0.2009670    0.3068565 
N     4.7741637    0.8066946   -0.7429307 
C    -0.0156425   -2.4382700   -0.9249555 
O    -0.9531893   -3.0314788   -0.4606424 
O     0.7676700   -2.9436328   -1.8828836 
H    -2.0966034    2.9992348    0.1327503 
H    -1.9275655    2.9573467    1.7373579 
H    -2.2232327    0.7487988    1.9081378 
H    -3.3089383   -0.5961669    0.1570264 
H    -5.6303731    0.1776678    0.6644769 
H    -4.9658382    1.7063345    1.2660791 
H    -4.6051471    0.1918709    2.1030358 
H    -2.9158911    0.8894770   -1.8142997 
H    -4.6267092    0.4930191   -1.6231141 
H    -4.0294542    2.0755522   -1.1239461 
H    -1.1835439   -1.1368227    0.8295644 
H     0.5802265   -0.4356821   -1.3543577 
H     2.5070045   -1.6072734   -0.4615262 
H     1.6994227   -1.9115269    1.0678892 
H     2.2218482    0.8989985    0.0013015 
H     1.5968637    0.4839617    1.5696317 
H     3.9237973    1.0574471    1.8053327 
H     3.7550694   -0.6633352    2.1362864 
H     5.7421287   -0.1744331    0.8014906 
H     4.6465291   -1.2277648   -0.0717213 
H     3.9671597    0.7119153   -1.3457009 
H     5.5879596    0.7003192   -1.3325624 
H     0.4332984   -3.8260393   -2.0866642 
C     1.4918603    2.5313748   -2.4018421 
O     1.0962747    3.6030625   -2.2414938 
O     1.9191339    1.4702132   -2.5939309 
