31
Energy = -1325.839697374
N     2.5257222    0.8951928    0.9288180 
C     1.7669120    1.4087080   -0.1917828 
C     2.3282364    0.8755634   -1.5092655 
S     4.0439519    1.3618220   -1.8251862 
C     0.3118798    0.9716114   -0.1267049 
O    -0.5463188    1.5243587   -0.8097267 
N     0.0542521   -0.0601547    0.6780698 
C    -1.2721783   -0.5920600    0.8224899 
C    -1.7488376   -1.4254131   -0.3938339 
C    -3.0886008   -0.9994953   -0.9781640 
O    -3.9821891   -1.7991653   -1.1650818 
N    -3.1747005    0.3133817   -1.2748482 
C    -1.2979700   -1.4254930    2.0807180 
O    -0.3273620   -1.7273799    2.7210089 
O    -2.5389009   -1.8011185    2.3857183 
H     2.3269767    1.4200734    1.7704672 
H     3.5142121    1.0113495    0.7392316 
H     1.7470610    2.5036775   -0.2567431 
H     1.7407276    1.2799027   -2.3315802 
H     2.2601008   -0.2122091   -1.5403026 
H     4.6314552    0.3001171   -1.2543314 
H     0.8131398   -0.4524070    1.2214203 
H    -1.9689669    0.2389210    0.9646442 
H    -0.9934763   -1.3273947   -1.1757018 
H    -1.8372475   -2.4813784   -0.1468906 
H    -2.3669060    0.9197507   -1.2011765 
H    -4.0121435    0.6439897   -1.7192448 
H    -2.4916484   -2.3600801    3.1711401 
C    -0.8156995    3.2566628   -2.9623836 
O     0.3261083    3.3662505   -3.1174823 
O    -1.9626348    3.1719795   -2.8438203 
