42
Energy = -1353.640599001
N    -1.9798698   -2.6988441   -1.2062862 
C    -2.2121715   -1.2805466   -0.9612109 
C    -2.9354765   -1.1645877    0.3841199 
C    -3.3217086    0.2194196    0.9139628 
C    -2.1677650    0.9559616    1.5823503 
C    -3.9912301    1.0887607   -0.1419488 
C    -0.8813689   -0.5370054   -0.9931345 
O    -0.7865915    0.6061621   -1.4120938 
N     0.1602660   -1.2399602   -0.5183473 
C     1.4992299   -0.7212599   -0.5277417 
C     1.7143051    0.2853133    0.6168295 
C     2.9812543    1.1183783    0.5480735 
S     3.0576856    2.0668678   -0.9885084 
C     4.6242849    2.8985994   -0.7203786 
C     2.4386389   -1.8987334   -0.4405641 
O     2.1046146   -3.0218788   -0.1722053 
O     3.7099376   -1.5606777   -0.6842353 
H    -1.7413858   -2.8710410   -2.1739514 
H    -2.8103640   -3.2357884   -0.9969124 
H    -2.8203165   -0.7974879   -1.7338359 
H    -2.3347119   -1.6875502    1.1349410 
H    -3.8575768   -1.7472472    0.2683724 
H    -4.0645975    0.0202819    1.6955809 
H    -2.5338591    1.8476387    2.0958288 
H    -1.4276834    1.2864556    0.8554841 
H    -1.6717602    0.3241172    2.3231594 
H    -4.3804403    2.0044322    0.3078692 
H    -3.2791821    1.3754739   -0.9179852 
H    -4.8277297    0.5699596   -0.6178560 
H     0.0179170   -2.2217252   -0.3213836 
H     1.6858359   -0.2030021   -1.4741829 
H     1.6826819   -0.2497851    1.5702136 
H     0.8501085    0.9496298    0.5936357 
H     2.9859093    1.8168093    1.3880239 
H     3.8744299    0.4954354    0.6147381 
H     5.4382937    2.1784039   -0.6268812 
H     4.5876661    3.5311791    0.1676354 
H     4.8089586    3.5263391   -1.5912389 
H     4.2330908   -2.3668251   -0.5907598 
C    -0.0715991    3.3706449   -1.3529273 
O    -0.2104597    3.3785246   -0.2030602 
O     0.0561659    3.4085765   -2.5004313 
