38
Energy = -1065.477663690
N     1.4722092   -2.2106291    1.8282914 
C     2.2274183   -1.5999913    0.7529029 
C     2.6421965   -2.5290843   -0.3861195 
C     3.6807646   -1.8813746   -1.2594290 
O     4.6178429   -1.2563608   -0.8331786 
O     3.4868641   -2.1140684   -2.5586259 
C     1.4922190   -0.3936273    0.1739708 
O     1.7207752   -0.0013956   -0.9596153 
N     0.6093669    0.1768729    1.0065075 
C    -0.0142148    1.4401244    0.7339158 
C    -1.5493554    1.3769806    0.7140014 
C    -2.1765774    0.9203333   -0.6007344 
C    -1.7498692   -0.4752143   -1.0326006 
C    -3.6922728    1.0068900   -0.4872885 
C     0.4211109    2.4355564    1.7897776 
O     0.8402225    2.1471640    2.8765306 
O     0.2419332    3.6990967    1.3822946 
H     2.0648872   -2.7774936    2.4170915 
H     0.7326015   -2.8018269    1.4715633 
H     3.1450655   -1.1848717    1.1829820 
H     3.0993446   -3.4249987    0.0430652 
H     1.7843375   -2.8353857   -0.9850658 
H     4.1553255   -1.6062052   -3.0367805 
H     0.5611345   -0.2110078    1.9381279 
H     0.3538617    1.7816913   -0.2357429 
H    -1.8754198    0.7224472    1.5301884 
H    -1.9351524    2.3740889    0.9414061 
H    -1.8529309    1.6261490   -1.3753900 
H    -1.9605423   -1.2058955   -0.2459034 
H    -0.6887066   -0.5215432   -1.2746959 
H    -2.3042566   -0.7788994   -1.9232545 
H    -4.0190376    2.0115998   -0.2099751 
H    -4.1707653    0.7455963   -1.4330662 
H    -4.0627054    0.3135237    0.2734885 
H     0.5055031    4.2712683    2.1136782 
C     4.0306653    1.4669592   -1.8319317 
O     4.0333228    1.9822940   -0.7976977 
O     4.0487276    0.9922829   -2.8881548 
