42
Energy = -919.4070053521
N    -1.7440448   -1.1503607    1.3247184 
C    -1.3716004   -0.7763379   -0.0164234 
C    -1.7577099    0.6830115   -0.2898053 
C    -3.2398609    0.9050933   -0.3016669 
C    -3.9103392    1.3973867    0.8116460 
C    -5.2856384    1.5749974    0.7934696 
C    -6.0127217    1.2592286   -0.3439981 
C    -5.3545197    0.7684345   -1.4626477 
C    -3.9799180    0.5951079   -1.4393022 
C     0.0887906   -0.9642480   -0.4383537 
O     0.4205266   -0.8488506   -1.6046073 
N     0.9604966   -1.2313452    0.5578820 
C     2.3387181   -1.5513885    0.3113315 
C     3.2931171   -0.4112145    0.6909846 
C     3.0958693    0.8668876   -0.1172568 
C     3.9148533    1.9906284    0.5018619 
C     3.4551058    0.6759302   -1.5830934 
C     2.6874761   -2.7818766    1.1133002 
O     2.0267921   -3.2167207    2.0195915 
O     3.8469056   -3.3240162    0.7284013 
H    -1.3412755   -0.5571302    2.0354627 
H    -1.5758620   -2.1208373    1.5423846 
H    -1.9387144   -1.4018757   -0.7125466 
H    -1.3267996    0.9607669   -1.2526533 
H    -1.2871453    1.3144845    0.4717107 
H    -3.3478470    1.6439119    1.7051074 
H    -5.7907356    1.9604264    1.6710744 
H    -7.0868024    1.3982365   -0.3607739 
H    -5.9133107    0.5250706   -2.3584162 
H    -3.4683309    0.2168395   -2.3182641 
H     0.5921468   -1.4828190    1.4608757 
H     2.4443644   -1.7789302   -0.7517762 
H     3.1541882   -0.1958576    1.7560344 
H     4.3217117   -0.7627266    0.5669887 
H     2.0374644    1.1433061   -0.0578558 
H     4.9826391    1.7548068    0.4716501 
H     3.7681132    2.9259928   -0.0414975 
H     3.6404142    2.1604976    1.5456192 
H     2.8047196   -0.0534148   -2.0663505 
H     3.3486081    1.6160211   -2.1280009 
H     4.4942293    0.3486906   -1.6863365 
H     4.0158264   -4.0758072    1.3099315 
