36
Energy = -1064.266040734
N    -2.0422697   -1.5427708   -1.9710225 
C    -1.3397199   -0.8035159   -0.9429579 
C    -1.5818004   -1.4556446    0.4227202 
C    -3.0465858   -1.4438994    0.8200844 
C    -3.6376249   -0.0974194    1.1212002 
O    -4.8024208    0.1800836    0.9918335 
O    -2.7442673    0.7890506    1.5939264 
C     0.1673277   -0.7837074   -1.1839701 
O     0.7174731   -1.7115468   -1.7556438 
N     0.8701151    0.2636367   -0.7041579 
C     2.3102337    0.2787058   -0.8415295 
C     2.6890020    1.6978520   -0.4041189 
C     1.6037469    2.0511541    0.6061984 
C     0.3518241    1.4281401    0.0041729 
C     3.0248097   -0.7598661    0.0033305 
O     4.1543063   -1.1064665   -0.2002560 
O     2.2957057   -1.2055293    1.0371735 
H    -1.4601717   -2.3313713   -2.2361959 
H    -2.1444165   -0.9774973   -2.8031277 
H    -1.7276264    0.2183598   -0.9212838 
H    -1.2402162   -2.4918246    0.3553327 
H    -0.9693790   -0.9744386    1.1872988 
H    -3.6580251   -1.8904195    0.0370481 
H    -3.1951724   -2.0430400    1.7247582 
H    -3.2321250    1.6049031    1.7842777 
H     2.6075324    0.0659609   -1.8683115 
H     2.6338344    2.3594317   -1.2709465 
H     3.7012818    1.7499601   -0.0066339 
H     1.8200678    1.5858057    1.5696707 
H     1.4981867    3.1237895    0.7642824 
H    -0.3806426    1.1464308    0.7592698 
H    -0.1319096    2.1197964   -0.6952944 
H     2.8461999   -1.8497489    1.4992479 
C    -5.7316505    2.7645183    1.6694267 
O    -6.8290102    2.5366559    1.4078690 
O    -4.6368895    3.0427189    1.9464323 
