40
Energy = -1121.517712709
N     0.0094783   -0.7384380    1.9151772 
C    -0.1072985    0.0363945    0.7042562 
C     0.1016415   -0.8715607   -0.5194035 
C     1.5243807   -1.2409386   -0.7317673 
C     2.5314351   -0.3792681   -1.2799696 
C     2.5158088    0.9276975   -1.7752800 
C     3.6924194    1.4732201   -2.2482840 
C     4.8872722    0.7404192   -2.2370093 
C     4.9324316   -0.5530638   -1.7533705 
C     3.7466922   -1.1003355   -1.2761882 
N     3.4807946   -2.3356640   -0.7476207 
C     2.1486399   -2.4135290   -0.4227171 
C    -1.3833282    0.8483110    0.4917399 
O    -1.4543621    1.6821691   -0.3976674 
N    -2.4140724    0.5835562    1.3143878 
C    -3.6556438    1.3004841    1.2210251 
C    -4.5469020    0.7840084    0.0926327 
C    -4.3493023    1.1886285    2.5552629 
O    -3.9898361    0.4776752    3.4567951 
O    -5.4359301    1.9620189    2.6222842 
H    -0.0496878   -0.1877490    2.7583972 
H    -0.6417682   -1.5092678    1.9592087 
H     0.6923526    0.7825492    0.6993076 
H    -0.2775879   -0.3468267   -1.3984060 
H    -0.5168664   -1.7665223   -0.3959771 
H     1.5984675    1.5053046   -1.7882944 
H     3.6949785    2.4843461   -2.6361325 
H     5.7937447    1.1969255   -2.6152434 
H     5.8585666   -1.1157564   -1.7478951 
H     4.1488434   -3.0721346   -0.6270304 
H     1.7418193   -3.3096353    0.0185650 
H    -2.2913017   -0.0255065    2.1068461 
H    -3.4399007    2.3568558    1.0331400 
H    -4.0023535    0.8665268   -0.8467771 
H    -4.8067041   -0.2626391    0.2599647 
H    -5.4624028    1.3705297    0.0256810 
H    -5.8341401    1.8190225    3.4898438 
C    -1.4542879    1.8712187   -3.1631767 
O    -0.6127087    2.6630885   -3.1741879 
O    -2.2972206    1.0780635   -3.2001216 
