49
Energy = -1239.364399554
N     1.1059882    2.1082389   -0.1933350 
C     0.8533568    0.6981948   -0.3536554 
C     1.1800839   -0.0507839    0.9489398 
C     2.6353097   -0.0934357    1.2443568 
C     3.5934826   -0.9443360    0.6001385 
C     3.4946636   -1.9415781   -0.3739595 
C     4.6437761   -2.5893276   -0.7808429 
C     5.8926366   -2.2633800   -0.2339737 
C     6.0198866   -1.2846658    0.7329670 
C     4.8615295   -0.6319001    1.1400361 
N     4.6723822    0.3604899    2.0649179 
C     3.3378145    0.6792890    2.1217924 
C    -0.5386876    0.2687749   -0.8166840 
O    -0.7628712   -0.8870537   -1.1375414 
N    -1.4879935    1.2257133   -0.8218248 
C    -2.8083543    1.0013326   -1.3425413 
C    -3.8679539    0.8694037   -0.2404542 
C    -3.6752981   -0.3381534    0.6709501 
C    -4.5993006   -0.2195000    1.8745738 
C    -3.9083258   -1.6487314   -0.0651519 
C    -3.1614621    2.1619711   -2.2407718 
O    -2.5732820    3.2111185   -2.2641019 
O    -4.2370971    1.9100456   -2.9923704 
H     0.9900618    2.6460840   -1.0387658 
H     0.5830312    2.5263435    0.5625601 
H     1.5281512    0.3186854   -1.1266067 
H     0.7865850   -1.0650360    0.8549006 
H     0.6353579    0.4294062    1.7691416 
H     2.5339909   -2.2081446   -0.7983066 
H     4.5816019   -3.3656835   -1.5334420 
H     6.7754830   -2.7903866   -0.5747979 
H     6.9871130   -1.0384508    1.1552659 
H     5.3913752    0.7818609    2.6205520 
H     2.9854789    1.4512005    2.7876685 
H    -1.2020002    2.1848074   -0.7085123 
H    -2.7833508    0.0857772   -1.9380022 
H    -4.8546099    0.8143935   -0.7098698 
H    -3.8473765    1.7873971    0.3568716 
H    -2.6412846   -0.3271762    1.0324249 
H    -5.6470698   -0.2134819    1.5602417 
H    -4.4138122    0.6996147    2.4352657 
H    -4.4639791   -1.0621088    2.5552908 
H    -4.9241029   -1.6880554   -0.4699356 
H    -3.7906086   -2.4952289    0.6144574 
H    -3.2010998   -1.7897051   -0.8822645 
H    -4.4175883    2.7068300   -3.5066543 
C    -0.5304312   -3.4990209   -2.0951113 
O     0.5385886   -3.6271567   -1.6717952 
O    -1.5966998   -3.4170434   -2.5355782 
