34
Energy = -1042.234379967
N    -2.2427578    2.0131775   -1.5197117 
C    -1.8439273    1.1900146   -0.4028534 
C    -3.0144887    0.4582392    0.2908796 
O    -2.6432916   -0.2262084    1.4548352 
C    -0.8815936    0.1378356   -0.9025028 
O    -0.9100598   -0.2778048   -2.0492368 
N    -0.0430115   -0.3462694    0.0381896 
C     0.7293111   -1.5298538   -0.1788264 
C     2.1391112   -1.4089816    0.3993872 
C     2.8253756   -0.1441726   -0.0880499 
C     2.3301296    1.0886417    0.6466812 
O     2.0523948    1.0576355    1.8313647 
N     2.2798500    2.2237174   -0.0838713 
C    -0.0190974   -2.7370122    0.3546674 
O    -1.1055534   -2.7054886    0.8724603 
O     0.6627263   -3.8692988    0.1741932 
H    -3.0507456    2.5745744   -1.2877157 
H    -2.4806939    1.4180312   -2.3045646 
H    -1.3450788    1.8044322    0.3540942 
H    -3.4955344   -0.2011546   -0.4433386 
H    -3.7468392    1.2157279    0.5839177 
H    -2.2372151   -1.0716609    1.2228908 
H    -0.1227164    0.0079360    0.9788514 
H     0.7915605   -1.6641703   -1.2633928 
H     2.7095730   -2.2919010    0.1135831 
H     2.0970940   -1.3789503    1.4909653 
H     2.7158120   -0.0263952   -1.1692233 
H     3.8972035   -0.2095931    0.1195474 
H     1.9004846    3.0398764    0.3644066 
H     2.2526510    2.1890629   -1.0872655 
H     0.1227894   -4.5895806    0.5236500 
C     0.0363122    1.9601511   -3.6705372 
O    -0.8351865    1.8803231   -4.4221615 
O     0.9450802    2.0629809   -2.9577300 
