26
Energy = -908.3462094488
N    -1.0606679   -1.2408044    1.0351218 
C    -1.0813341   -0.8083032   -0.3517745 
C    -1.5729892    0.6277892   -0.4622113 
C    -3.0087731    0.8101526   -0.0761839 
O    -3.7324147   -0.0364685    0.3836313 
O    -3.4236767    2.0635101   -0.2934984 
C     0.3140955   -0.8247257   -0.9687428 
O     0.4786936   -0.7364629   -2.1694039 
N     1.3160376   -0.9046927   -0.0676945 
C     2.6782780   -0.7273686   -0.4543176 
C     3.2172363    0.6842237   -0.3631929 
O     4.3689588    0.9600182   -0.5494629 
O     2.2822234    1.5950394   -0.0578984 
H    -1.9701846   -1.0825924    1.4498593 
H    -0.9085980   -2.2405720    1.0827358 
H    -1.7051982   -1.4342634   -1.0009743 
H    -0.9691803    1.2848756    0.1721320 
H    -1.4433287    0.9827778   -1.4866083 
H    -4.3479559    2.1075381   -0.0177773 
H     1.0309206   -0.8587814    0.9001720 
H     2.7790286   -1.0266018   -1.4999626 
H     3.3433865   -1.3617174    0.1332341 
H     2.7287524    2.4508613   -0.0508688 
C    -4.9668861   -2.1334682    1.9192746 
O    -3.9164334   -2.4582905    2.2838895 
O    -6.0264978   -1.8304763    1.5740790 
