34
Energy = -950.9798818157
N     1.7384224    1.5027154   -0.2673305 
C     1.7282115    0.1544133   -0.8519428 
C     2.5823687   -0.7286301    0.0801130 
C     3.4579320    0.2735678    0.8193506 
C     2.5124503    1.4562614    0.9759519 
C     0.3337063   -0.4350005   -1.0129778 
O     0.1605620   -1.5173180   -1.5405801 
N    -0.6404067    0.3363268   -0.4948738 
C    -2.0349739    0.0258978   -0.5792590 
C    -2.6156219   -0.2750205    0.8078795 
O    -4.0128275   -0.3936331    0.6274020 
C    -2.0089733   -1.5257225    1.4043052 
C    -2.7591318    1.2205102   -1.1698466 
O    -2.5347908    2.3582680   -0.8465364 
O    -3.6614436    0.8845315   -2.0881421 
H     2.1459592    2.1602040   -0.9140023 
H     2.1596511    0.1669027   -1.8560809 
H     1.9349100   -1.2566116    0.7848010 
H     3.1370817   -1.4828449   -0.4739766 
H     3.8339903   -0.1083837    1.7693396 
H     4.3169102    0.5592801    0.2054260 
H     3.0148848    2.4088278    1.1479296 
H     1.8339984    1.2883054    1.8189748 
H    -0.3404980    1.2342371   -0.1420847 
H    -2.1558267   -0.8458649   -1.2228878 
H    -2.3886772    0.5923819    1.4436370 
H    -4.4160059   -0.5762293    1.4767639 
H    -2.4166749   -1.7053202    2.4021462 
H    -0.9272172   -1.4276237    1.4986795 
H    -2.2257693   -2.3900353    0.7751712 
H    -4.0893911    1.7009456   -2.3767275 
C    -0.3349660    3.7975505    0.5925709 
O    -0.5899668    3.1676365    1.5301860 
O    -0.0627266    4.4450830   -0.3250999 
