33
Energy = -967.0478064890
N    -3.3360627    1.6786859   -0.3115738 
C    -3.0064176    0.3241906    0.0798881 
C    -3.8770889   -0.7614913   -0.5561484 
C    -1.5632678    0.0744447   -0.3206608 
O    -1.1126761    0.4839182   -1.3802824 
N    -0.8271379   -0.6604299    0.5296912 
C     0.5230248   -1.0332881    0.2061932 
C     1.5105525    0.1298308    0.4189116 
C     2.7515599    0.0448918   -0.4594935 
C     3.6732845    1.2073596   -0.1582144 
O     4.4962418    1.1619684    0.7332873 
N     3.4900420    2.3032874   -0.9324276 
C     0.8793446   -2.2212504    1.0644826 
O     0.2305528   -2.5976273    2.0044197 
O     2.0196168   -2.7988942    0.6819988 
H    -3.0164458    1.8337253   -1.2609641 
H    -4.3368860    1.8199624   -0.2937950 
H    -3.0850542    0.2464534    1.1698597 
H    -3.7749007   -0.7328534   -1.6425181 
H    -4.9253777   -0.5924105   -0.3021744 
H    -3.6024584   -1.7597633   -0.2066760 
H    -1.2108740   -1.0203471    1.3887484 
H     0.5629076   -1.3285198   -0.8463281 
H     1.7965068    0.1914171    1.4720350 
H     0.9613766    1.0403021    0.1767851 
H     3.3085017   -0.8681422   -0.2565840 
H     2.4491353    0.0432994   -1.5100694 
H     2.7372640    2.3642997   -1.5937003 
H     4.0073450    3.1336406   -0.7046857 
H     2.2059079   -3.5094135    1.3089088 
C    -0.3966544    2.7311301   -2.8058880 
O    -1.4990134    2.9578628   -3.0627369 
O     0.7241970    2.5477226   -2.5781115 
