33
Energy = -1024.978408088
N    -2.1049086   -0.7664682    0.9487910 
C    -1.9994819   -0.1791256   -0.3833648 
C    -3.0106835    0.9719612   -0.4407364 
C    -4.0883682    0.5536315    0.5773811 
C    -3.5420112   -0.7445410    1.2073826 
C    -0.5867575    0.1976403   -0.7607679 
O    -0.3374514    1.0709950   -1.5731500 
N     0.3721969   -0.5221423   -0.1424032 
C     1.7581228   -0.3531027   -0.4672061 
C     2.3363640    0.9166611    0.1825862 
C     3.7186227    1.2884364   -0.2709766 
O     4.6418438    1.5370100    0.4520911 
O     3.8037582    1.3513056   -1.6111436 
C     2.4980386   -1.5835250    0.0046763 
O     2.0180773   -2.4511258    0.6813619 
O     3.7687961   -1.5787779   -0.4023421 
H    -1.6539840   -0.1374012    1.6064827 
H    -2.3041571   -0.9541795   -1.0997655 
H    -2.5215343    1.9033076   -0.1515402 
H    -3.4030439    1.1202243   -1.4453959 
H    -4.2246071    1.3256402    1.3361080 
H    -5.0596244    0.3920064    0.1084780 
H    -3.9867351   -1.6179822    0.7227395 
H    -3.7382674   -0.8286802    2.2760522 
H     0.1104769   -1.2857999    0.4653279 
H     1.8772147   -0.2656018   -1.5507941 
H     2.3473472    0.8245424    1.2673711 
H     1.6691762    1.7361711   -0.0955868 
H     4.7119515    1.5986197   -1.8230374 
H     4.1988533   -2.3553170   -0.0229808 
C     1.4215069    2.6816751   -3.0605235 
O     1.4539392    1.9208580   -3.9302554 
O     1.4127250    3.4713142   -2.2142622 
