36
Energy = -1275.074838056
N     0.7807116    1.1181195    1.4497214 
C     0.7099682    1.0392144    0.0087929 
C     1.7444850    0.0650694   -0.5577803 
C     3.1982817    0.5358229   -0.5628345 
C     3.8200114    0.6373182    0.8227372 
C     4.0227478   -0.3938018   -1.4438349 
C    -0.6492107    0.6851860   -0.6031433 
O    -0.8476043    0.8015159   -1.8010830 
N    -1.5929155    0.2430532    0.2506907 
C    -2.8994687   -0.1675371   -0.1940222 
C    -2.8632385   -1.6330337   -0.6445889 
S    -4.4354986   -2.3159745   -1.2042914 
C    -3.8466158    0.0158172    0.9706329 
O    -3.5504503   -0.2565462    2.1049246 
O    -5.0281749    0.5083160    0.6121675 
H     0.0797476    1.7155845    1.8617300 
H     0.7785488    0.2145106    1.9002223 
H     0.9300856    2.0319474   -0.3996447 
H     1.4498830   -0.1398397   -1.5889243 
H     1.6679327   -0.8870038   -0.0143950 
H     3.2117049    1.5333827   -1.0192208 
H     4.8611023    0.9603758    0.7512393 
H     3.8128959   -0.3400562    1.3162735 
H     3.2796811    1.3355551    1.4592504 
H     5.0635936   -0.0675985   -1.4937067 
H     3.6311764   -0.4344494   -2.4624237 
H     4.0156189   -1.4116313   -1.0423079 
H    -1.3761749    0.1248350    1.2266988 
H    -3.2002570    0.4593647   -1.0325300 
H    -2.5541735   -2.2565822    0.1962818 
H    -2.1117352   -1.7214778   -1.4279109 
H    -4.5713005   -1.5188807   -2.2749068 
H    -5.5792173    0.5415972    1.4052132 
C    -2.1831553    0.3883239   -4.2131853 
O    -1.2226157    0.6551518   -4.7943077 
O    -3.1717789    0.1112331   -3.6744903 
