39
Energy = -1314.362908257
N     0.9732712   -1.8731215   -1.1930208 
C     1.1857299   -1.6493810    0.2299201 
C     2.3029958   -0.6353047    0.4671502 
C     3.6810817   -1.1796149    0.1337091 
S     5.0297122   -0.0228214    0.4376639 
C     4.7502850    1.1568223   -0.8883008 
C    -0.0873073   -1.1184734    0.8738121 
O    -0.3406147   -1.2985445    2.0520990 
N    -0.8807560   -0.4094716    0.0476633 
C    -2.1724049    0.0443123    0.4808110 
C    -2.8178011    0.9166154   -0.6037176 
C    -4.2461599    1.3017049   -0.2504775 
C    -1.9740196    2.1591726   -0.8512138 
C    -3.0433173   -1.1603007    0.8053789 
O    -3.0628536   -2.1724977    0.1563830 
O    -3.8021822   -0.9662064    1.8847740 
H     0.4227067   -2.7106446   -1.3359996 
H     1.8508949   -2.0071613   -1.6746681 
H     1.4232659   -2.5650826    0.7839822 
H     2.0909112    0.2579723   -0.1266975 
H     2.2862617   -0.3406443    1.5177614 
H     3.7544840   -1.5124383   -0.9059713 
H     3.9032746   -2.0459410    0.7614858 
H     3.8105777    1.6951110   -0.7668710 
H     4.7710609    0.6626063   -1.8609224 
H     5.5678642    1.8757156   -0.8462089 
H    -0.6703455   -0.4987688   -0.9363271 
H    -2.0585255    0.6239195    1.4000352 
H    -2.8417448    0.3128423   -1.5193265 
H    -4.2816510    1.8424206    0.6982860 
H    -4.6581598    1.9526945   -1.0229833 
H    -4.9002826    0.4335013   -0.1642063 
H    -0.9449540    1.9139641   -1.1147388 
H    -1.9488365    2.7868012    0.0434152 
H    -2.3996954    2.7514373   -1.6629965 
H    -4.2919638   -1.7843417    2.0386633 
C    -1.5106548   -4.0925444    1.7001407 
O    -0.7505527   -4.2566309    0.8421888 
O    -2.2673690   -3.9678655    2.5644135 
