36
Energy = -1155.506386488
N     3.1684015   -0.7330198    1.9155133 
C     2.3784211    0.1103208    1.0497709 
C     3.2510501    0.6364649   -0.0932069 
C     3.9749944   -0.4507884   -0.8396571 
O     5.1472317   -0.4517773   -1.0899333 
O     3.1461185   -1.4287569   -1.2431961 
C     1.1406631   -0.6770118    0.6132737 
O     0.8140588   -1.7054223    1.1755628 
N     0.3984983   -0.1246175   -0.3676468 
C    -0.7255363   -0.8290415   -0.9229763 
C    -2.0202989   -0.6269427   -0.1280436 
C    -2.4504522    0.8268943   -0.0428440 
C    -3.7954891    0.9593393    0.6427466 
O    -4.7106652    0.1957335    0.4214045 
N    -3.9129096    2.0070117    1.4940739 
C    -0.9004556   -0.3775232   -2.3507346 
O    -0.3502953    0.5747058   -2.8438328 
O    -1.7691669   -1.1387646   -3.0127422 
H     2.5748805   -1.4637136    2.2906290 
H     3.5856210   -0.2145304    2.6728744 
H     1.9702257    0.9939807    1.5654065 
H     4.0184065    1.2919391    0.3161325 
H     2.6793355    1.2323647   -0.8101515 
H     3.6929197   -2.0929284   -1.6796319 
H     0.7413555    0.6617652   -0.8935205 
H    -0.5027158   -1.8996155   -0.9258942 
H    -2.8205910   -1.2145163   -0.5772944 
H    -1.8440113   -1.0277494    0.8713861 
H    -1.6873328    1.4270808    0.4581556 
H    -2.5799153    1.2483916   -1.0466134 
H    -4.7895934    2.1459064    1.9644593 
H    -3.1408747    2.6071365    1.7105865 
H    -1.8600684   -0.7704173   -3.9006338 
C     0.0500708    3.3371938   -2.1707615 
O     0.7496848    3.0187696   -1.3022450 
O    -0.6479583    3.6834243   -3.0213403 
