37
Energy = -1098.496413483
N    -2.6413734   -1.7798920   -0.9578376 
C    -2.6844166   -0.3339597   -1.0546367 
C    -3.6932411    0.3673356   -0.1427034 
O    -4.9614024   -0.1340985   -0.5400383 
C    -3.4391731    0.1335793    1.3327840 
C    -1.3041628    0.2858833   -0.8834371 
O    -1.1548186    1.4857449   -0.6958232 
N    -0.2821185   -0.5743755   -0.9786520 
C     1.0807316   -0.1335867   -0.8734706 
C     1.4912537    0.0280851    0.6076049 
C     2.8389942    0.6138600    0.8185002 
C     3.1803447    1.9360167    0.9088161 
N     4.5390074    1.9490092    1.0739651 
C     4.9600475    0.6613649    1.0808496 
N     3.9616026   -0.1677819    0.9283189 
C     1.9554649   -1.1528178   -1.5603629 
O     1.6905503   -2.3227576   -1.6375576 
O     3.0671196   -0.6117259   -2.0581960 
H    -2.5628573   -2.0721043    0.0083110 
H    -3.5072348   -2.1665129   -1.3072608 
H    -2.9835409   -0.0896045   -2.0797322 
H    -3.6206157    1.4390732   -0.3502362 
H    -5.6346376    0.2885497   -0.0058441 
H    -4.1782438    0.6677485    1.9339160 
H    -3.5111998   -0.9263540    1.5864093 
H    -2.4556349    0.5075706    1.6210025 
H    -0.4861809   -1.5464354   -1.1681688 
H     1.1836971    0.8347931   -1.3652090 
H     1.4389157   -0.9506003    1.0886517 
H     0.7316468    0.6707021    1.0538168 
H     2.5874908    2.8341863    0.8731309 
H     5.1134429    2.7643086    1.1856687 
H     5.9967986    0.3898565    1.2051185 
H     3.6155567   -1.3383664   -2.3795149 
C    -1.0292446    3.6217225    1.0632580 
O    -2.1687929    3.5667682    1.2504265 
O     0.1149247    3.7145297    0.9158398 
