50
Energy = -1347.823264564
N    -0.8313754    1.0148459   -2.0066579 
C    -0.8739603    0.1307269   -0.8660244 
C    -2.1627958   -0.7125937   -0.8792388 
C    -3.3809253    0.1016954   -0.5686297 
C    -4.0423593    0.8289263   -1.5511617 
C    -5.1438069    1.6115880   -1.2439373 
C    -5.6037574    1.6836446    0.0649105 
O    -6.6797170    2.4333390    0.4214165 
C    -4.9544251    0.9666684    1.0608937 
C    -3.8570239    0.1880991    0.7370334 
C     0.3213760   -0.8171296   -0.8155310 
O     0.9061016   -1.1738232   -1.8282732 
N     0.6434127   -1.2444949    0.4180417 
C     1.5556782   -2.3221974    0.6938211 
C     2.9871788   -1.8777344    1.0368051 
C     3.8192888   -1.4434161   -0.1772910 
C     4.1816023    0.0339289   -0.2080208 
N     3.0761086    0.9223223   -0.4735505 
C     2.4570893    1.6472757    0.4992776 
N     2.7448420    1.5149290    1.7401116 
N     1.4891102    2.5036211   -0.0305675 
C     0.9956171   -3.0958737    1.8648214 
O     0.1936397   -2.6619655    2.6504402 
O     1.5210818   -4.3192368    1.9621950 
H    -0.1742761    1.7598898   -1.8164083 
H    -0.4641983    0.4932370   -2.7959589 
H    -0.8745325    0.7372187    0.0433837 
H    -2.2460413   -1.1803381   -1.8639485 
H    -2.0710755   -1.5198633   -0.1480541 
H    -3.6800344    0.7933074   -2.5706381 
H    -5.6481817    2.1707119   -2.0261903 
H    -7.0318132    2.8660675   -0.3582288 
H    -5.3219946    1.0244311    2.0774842 
H    -3.3580302   -0.3696597    1.5229500 
H     0.1110137   -0.9011350    1.2021327 
H     1.5860064   -2.9790812   -0.1788920 
H     3.4804931   -2.7176968    1.5291355 
H     2.9299091   -1.0645588    1.7646187 
H     3.2968968   -1.7017027   -1.1021853 
H     4.7574485   -2.0046206   -0.1876128 
H     4.6108146    0.3419285    0.7455960 
H     4.9402279    0.1928540   -0.9808734 
H     2.5331785    0.7319440   -1.3002388 
H     2.3018204    2.2426366    2.2889144 
H     1.0611699    3.1039336    0.6547704 
H     1.7999646    3.0176413   -0.8410401 
H     1.1552100   -4.7235744    2.7590347 
C     0.7453413    0.0618932    3.7508234 
O    -0.0886637    0.5038944    3.0772162 
O     1.5659267   -0.3671970    4.4394411 
