35
Energy = -877.0082396297
N    -0.3081304   -2.1670415    0.3282455 
C    -0.6487819   -1.0437036   -0.5378082 
C    -1.8766832   -0.2404542   -0.0448629 
C    -3.0431494   -1.1863553    0.2179782 
C    -2.3022260    0.8723852   -1.0022884 
C    -3.3276698    1.8274548   -0.4130851 
C     0.5802844   -0.1553664   -0.7451795 
O     0.6174170    0.7302092   -1.5871658 
N     1.6147170   -0.4197313    0.0698007 
C     2.8567545    0.2886768   -0.0609264 
C     2.8256120    1.6533249    0.6247597 
C     3.9534560   -0.5782151    0.5044878 
O     3.7837581   -1.6136633    1.0900734 
O     5.1642305   -0.0494007    0.2914320 
H    -0.6023754   -1.9920416    1.2799592 
H    -0.7616203   -3.0160751    0.0285313 
H    -0.8825888   -1.4331794   -1.5340049 
H    -1.5854010    0.2251578    0.9086240 
H    -2.8135525   -1.9483728    0.9631108 
H    -3.3319836   -1.6959953   -0.7064122 
H    -3.9132868   -0.6379997    0.5777267 
H    -1.4262178    1.4349218   -1.3163041 
H    -2.7019254    0.4134261   -1.9139756 
H    -3.5429848    2.6355033   -1.1141900 
H    -4.2762448    1.3410054   -0.1786360 
H    -2.9527541    2.2830444    0.5076437 
H     1.5945267   -1.2955552    0.5760701 
H     3.0661469    0.4508365   -1.1238119 
H     2.0248858    2.2443478    0.1831481 
H     3.7688242    2.1786466    0.4815110 
H     2.6375335    1.5397972    1.6936797 
H     5.8067660   -0.6473757    0.6924452 
C     0.7064119    2.7498310   -3.5053932 
O    -0.3700703    2.5053243   -3.8503997 
O     1.7839068    3.0309555   -3.1912897 
