41
Energy = -1233.826692551
N    -1.8366346    1.6987068    0.1132017 
C    -2.2303059    0.3096126    0.2848381 
C    -3.7001714    0.0111492    0.0151367 
C    -4.6248848    0.7694796    0.9424754 
O    -4.2287973    1.4607603    1.8608607 
N    -5.9438285    0.6138638    0.6791845 
C    -1.3747085   -0.4806607   -0.6914975 
O    -1.5404580   -0.3823911   -1.8965866 
N    -0.4111611   -1.2416190   -0.1419758 
C     0.6069539   -1.8451641   -0.9528159 
C     1.6440856   -0.8129883   -1.4560041 
C     2.3799299   -0.1267214   -0.3449034 
C     3.6275816   -0.5823648    0.0773373 
C     4.3009420    0.0131879    1.1284121 
C     3.7253636    1.0907445    1.7897378 
O     4.4168869    1.6460510    2.8160960 
C     2.4816909    1.5595882    1.3845844 
C     1.8208575    0.9583432    0.3247321 
C     1.2789044   -2.9288881   -0.1518048 
O     1.1424100   -3.1042543    1.0293388 
O     2.0869887   -3.6782366   -0.9095291 
H    -2.3824209    2.2706039    0.7451092 
H    -2.0320955    1.9883086   -0.8375511 
H    -1.9923244    0.0255809    1.3118594 
H    -3.8995169   -1.0599053    0.1351298 
H    -3.9293629    0.2528387   -1.0268713 
H    -6.6106250    1.0848798    1.2638474 
H    -6.2706164    0.0459605   -0.0790373 
H    -0.2690646   -1.2276862    0.8556194 
H     0.1373708   -2.2976974   -1.8294198 
H     2.3411047   -1.3253358   -2.1207735 
H     1.0832145   -0.0942094   -2.0547802 
H     4.0872449   -1.4218536   -0.4335412 
H     5.2699186   -0.3454305    1.4504429 
H     3.9182424    2.3844819    3.1706333 
H     2.0266267    2.4036397    1.8935789 
H     0.8503373    1.3439201    0.0302837 
H     2.5064177   -4.3196062   -0.3224891 
C     1.2723657   -1.2453386    3.2737295 
O     0.2317324   -0.8450451    2.9550929 
O     2.3023000   -1.6319141    3.6204299 
