30
Energy = -873.6273141177
N     2.8898536    1.1745837    0.4890627 
C     2.6884097    0.1749169   -0.5460321 
C     3.2051259   -1.1752444   -0.0741680 
C     1.2125551    0.0222293   -0.8972715 
O     0.8671041   -0.5634770   -1.9134647 
N     0.3608838    0.5414504   -0.0048144 
C    -1.0602931    0.4380472   -0.1571087 
C    -1.5797872   -0.9226503    0.3348299 
O    -1.4780346   -0.8933591    1.7471435 
C    -2.9750924   -1.2745717   -0.1348426 
C    -1.6863059    1.5998883    0.5836142 
O    -1.0917076    2.3445627    1.3118668 
O    -2.9936910    1.7244922    0.3243084 
H     2.8642861    2.1127674    0.1137326 
H     3.7826940    1.0497142    0.9442805 
H     3.1804425    0.4209601   -1.4953445 
H     2.9887177   -1.9400007   -0.8186401 
H     2.7293398   -1.4525296    0.8689892 
H     4.2857496   -1.1384942    0.0805704 
H     0.7456674    1.0011165    0.8089663 
H    -1.3092697    0.5179984   -1.2181851 
H    -0.8735830   -1.6512370   -0.0817019 
H    -1.7468352   -1.7456426    2.0915506 
H    -3.2246876   -2.2884420    0.1881321 
H    -3.0314015   -1.2491580   -1.2241300 
H    -3.7160257   -0.5886855    0.2717161 
H    -3.3087282    2.4688397    0.8520844 
C    -0.8571724   -1.2154255   -3.9935068 
O    -0.0129013   -1.8011154   -4.5198068 
O    -1.7400621   -0.6425436   -3.5077720 
