45
Energy = -1120.330864909
N     0.2379755    1.8805091   -0.3624334 
C     0.5050168    0.4995119   -0.7303678 
C     1.5605483   -0.2154540    0.1066052 
C     2.9424408    0.3966984   -0.0181805 
C     3.9708502   -0.3440021    0.8132940 
N     5.2725949    0.2579673    0.6718669 
C     6.3671792   -0.2854809    1.3149172 
N     6.4252940   -1.3795586    1.9656928 
N     7.4948243    0.5146664    1.1989309 
C    -0.7834584   -0.3262861   -0.7524376 
O    -0.7599356   -1.5462133   -0.8173557 
N    -1.9133578    0.3927308   -0.7255141 
C    -3.2054670   -0.2280141   -0.8103862 
C    -3.6633086   -0.7809488    0.5620315 
C    -3.9942872    0.3328045    1.5414971 
C    -4.7926988   -1.7898327    0.4432556 
C    -4.1619323    0.7961008   -1.3696033 
O    -3.9511411    1.9787147   -1.4111736 
O    -5.3015639    0.2473573   -1.8065423 
H     0.9393370    2.5057985   -0.7297729 
H     0.2254762    1.9919780    0.6436531 
H     0.8429203    0.5038020   -1.7736201 
H     1.2395865   -0.2061139    1.1557766 
H     1.5853447   -1.2616261   -0.2046488 
H     3.2595305    0.3885173   -1.0662149 
H     2.9178372    1.4470507    0.2964066 
H     4.0301620   -1.3825959    0.4749089 
H     3.6450732   -0.3696441    1.8641456 
H     5.2735065    1.2654677    0.6508306 
H     5.5106849   -1.8005344    2.0765361 
H     8.3105655    0.0421121    1.5541193 
H     7.6416069    0.8979652    0.2784802 
H    -1.8347295    1.4003911   -0.7377266 
H    -3.1457859   -1.0719449   -1.5030503 
H    -2.7801472   -1.3112735    0.9261247 
H    -4.9043497    0.8651821    1.2509882 
H    -3.1854789    1.0626396    1.6078380 
H    -4.1575483   -0.0772693    2.5392875 
H    -4.5375636   -2.5880817   -0.2567856 
H    -5.7196061   -1.3266459    0.1030284 
H    -4.9833356   -2.2467122    1.4160414 
H    -5.8584032    0.9731044   -2.1158615 
C    -0.0725445   -3.1532652    1.4044242 
O     0.5936541   -3.8506466    0.7684523 
O    -0.7240765   -2.4755457    2.0815622 
