39
Energy = -991.4801365767
N     2.3235365   -2.2995282   -0.9138782 
C     2.2367662   -0.9762333   -0.3180639 
C     3.4342867   -0.1542436   -0.8375788 
O     4.5990637   -0.9193100   -0.6700856 
C     3.6237365    1.1604622   -0.1206921 
C     0.9262447   -0.2925218   -0.6757865 
O     0.4336597   -0.4343485   -1.7824301 
N     0.3678728    0.4649928    0.2925792 
C    -0.8029715    1.2624732    0.0611896 
C    -1.9883515    0.8367897    0.9360669 
C    -2.4420660   -0.6016609    0.7113901 
C    -3.5104866   -0.9626823    1.7333332 
C    -2.9444678   -0.8297222   -0.7068536 
C    -0.4900356    2.7199271    0.3105870 
O     0.4657682    3.1331866    0.9129842 
O    -1.4315229    3.5229383   -0.1942216 
H     1.8223880   -2.9797271   -0.3597428 
H     1.8719666   -2.2649929   -1.8225297 
H     2.3445896   -1.0686375    0.7667149 
H     3.2509629    0.0341987   -1.9071363 
H     4.3263436   -1.8253972   -0.8761580 
H     2.7566578    1.8135566   -0.2268359 
H     4.4938591    1.6768862   -0.5256100 
H     3.8091724    0.9775353    0.9404961 
H     0.8611568    0.5934115    1.1614975 
H    -1.0617047    1.1462074   -0.9925080 
H    -1.7076491    0.9703015    1.9867073 
H    -2.8230579    1.5161637    0.7409108 
H    -1.5778302   -1.2542002    0.8778418 
H    -3.1501584   -0.8284528    2.7558193 
H    -4.3966889   -0.3343727    1.6060970 
H    -3.8240086   -2.0022164    1.6207505 
H    -3.3098459   -1.8520332   -0.8229596 
H    -3.7747806   -0.1546763   -0.9351695 
H    -2.1600596   -0.6774605   -1.4494925 
H    -1.1832219    4.4288193    0.0292737 
C     2.2300016    2.3256880    3.0268982 
O     1.7346185    1.2756676    3.0267459 
O     2.7409519    3.3581330    3.0561908 
