20
Energy = -680.5970724065
N    -3.2107535   -0.6713107   -0.3332451 
C    -1.8216486   -1.0520887   -0.3046667 
C    -0.8579797    0.0820278    0.0251389 
O    -1.2323426    1.1459081    0.4818757 
N     0.4476157   -0.1874742   -0.1956717 
C     1.4597739    0.7711934    0.1195873 
C     2.8111137    0.2314712   -0.2397248 
O     3.0197506   -0.8526214   -0.7186487 
O     3.7794216    1.1066283    0.0366613 
H    -3.4085722   -0.1040070    0.4826559 
H    -3.3810233   -0.0642107   -1.1247414 
H    -1.5395828   -1.5069179   -1.2577438 
H    -1.6717932   -1.8311992    0.4514186 
H     0.7402781   -1.0660548   -0.5935662 
H     1.3059782    1.7147818   -0.4141237 
H     1.4590246    1.0332845    1.1829656 
H     4.6162101    0.6981479   -0.2180580 
C     2.1114626   -3.3941680   -1.7839529 
O     1.0237038   -3.0547692   -1.5677659 
O     3.1824262   -3.7578472   -2.0099565 
