32
Energy = -986.9096330736
N     3.4452627    1.0387800    1.4989858 
C     3.0143518    0.6336600    0.1783176 
C     3.9457610   -0.3565838   -0.5238651 
C     1.6494367   -0.0186589    0.3236450 
O     1.3901410   -0.7489030    1.2659971 
N     0.7761114    0.2167633   -0.6719647 
C    -0.5134864   -0.4185767   -0.7146327 
C    -1.5303385    0.3202316    0.1687808 
C    -2.8088810   -0.4486207    0.4268672 
C    -3.6815071    0.2404906    1.4335077 
O    -3.4296547    1.2694014    1.9986028 
O    -4.8215584   -0.4404432    1.6446368 
C    -0.9457332   -0.4500073   -2.1607408 
O    -0.4724224    0.2381123   -3.0254559 
O    -1.9407207   -1.3150828   -2.3803216 
H     3.1851254    0.3149564    2.1596614 
H     4.4494784    1.1475239    1.5311472 
H     2.9100222    1.5246978   -0.4516433 
H     4.9433011    0.0772121   -0.6186991 
H     3.5917149   -0.6073017   -1.5268087 
H     4.0214087   -1.2758090    0.0598272 
H     1.0196994    0.8098130   -1.4485809 
H    -0.4129653   -1.4431922   -0.3464083 
H    -1.7461468    1.2997979   -0.2641032 
H    -1.0302163    0.5033675    1.1192924 
H    -2.5914819   -1.4470429    0.8156401 
H    -3.3989052   -0.6036661   -0.4782974 
H    -5.3201459    0.0555818    2.3053088 
H    -2.1750307   -1.2461475   -3.3147919 
C    -0.0331917   -1.7053413    3.4798152 
O     0.8978996   -1.5624963    4.1479419 
O    -0.9901221   -1.8662837    2.8470408 
