30
Energy = -1022.799955141
N     1.6963336    0.0921244   -2.6038207 
C     1.2789831   -0.0875640   -1.2339171 
C     2.0968769    0.8355720   -0.3280086 
C     3.5675903    0.5389329   -0.3850670 
O     4.4350844    1.3485216   -0.5540933 
O     3.8263094   -0.7665006   -0.1782035 
C    -0.1905969    0.2412328   -0.9938075 
O    -0.7617696    1.1056727   -1.6308861 
N    -0.7973766   -0.4700157   -0.0143491 
C    -2.0485689   -0.0448693    0.5377921 
C    -2.8955158   -1.2337207    0.9441847 
O    -2.1577202   -1.9492862    1.9137006 
C    -1.8118187    0.8967788    1.7116398 
O    -0.7364020    1.2213330    2.1269275 
O    -2.9675629    1.3400752    2.2219816 
H     1.2800411   -0.6134692   -3.1968251 
H     1.3530297    0.9862065   -2.9379143 
H     1.4747712   -1.1224794   -0.9428815 
H     1.9552894    1.8731802   -0.6288265 
H     1.7640725    0.7431906    0.7103049 
H     4.7842378   -0.8656531   -0.2322015 
H    -0.2387758   -1.0767113    0.5628693 
H    -2.5751360    0.5254482   -0.2317408 
H    -3.8503003   -0.8797586    1.3430093 
H    -3.0827944   -1.8434256    0.0539364 
H    -2.6509900   -2.7246357    2.1810421 
H    -2.7461320    1.9345655    2.9494167 
C    -2.0737686    3.0850218   -3.0946105 
O    -1.1196023    3.2955481   -3.7128928 
O    -3.0501056    2.9046116   -2.4999287 
