33
Energy = -912.8967771152
N    -1.5496209   -1.3504031    1.6680468 
C    -1.0467956   -1.0226867    0.3532652 
C    -1.8373796    0.0368417   -0.4532840 
C    -3.2049369   -0.5101301   -0.8357189 
C    -1.9645377    1.3654455    0.2746343 
C     0.3855787   -0.5575907    0.5308836 
O     0.7440489    0.0980115    1.4939369 
N     1.2383484   -0.8777501   -0.4653437 
C     2.6125953   -0.4621450   -0.4054508 
C     2.7699661    1.0349616   -0.6757995 
O     2.2639673    1.3788450   -1.9464743 
C     3.2428949   -0.9473329    0.8984323 
O     3.0016358   -2.0029247    1.4091414 
O     4.1643749   -0.0983874    1.3691009 
H    -1.2325546   -0.6538548    2.3313602 
H    -2.5582617   -1.3891289    1.6856063 
H    -1.0338653   -1.9384446   -0.2499066 
H    -1.2708156    0.2034780   -1.3771955 
H    -3.7411418    0.1997026   -1.4682677 
H    -3.1242872   -1.4542570   -1.3792189 
H    -3.8271203   -0.6821533    0.0474687 
H    -2.5323694    1.2495930    1.2009533 
H    -0.9923045    1.7852194    0.5324029 
H    -2.4950886    2.0876151   -0.3486092 
H     0.9466825   -1.5332678   -1.1653808 
H     3.1464424   -1.0075435   -1.1913777 
H     3.8186132    1.3196491   -0.5654529 
H     2.1910569    1.5893665    0.0608901 
H     2.9221572    1.1710595   -2.6103262 
H     4.5142770   -0.4939366    2.1774475 
C     0.4845000   -3.5657083    2.1483642 
O     0.3505550   -3.8596760    1.0353186 
O     0.6287285   -3.3155012    3.2665629 
