34
Energy = -1005.114519408
N     1.2338831   -0.4041452   -1.8535157 
C     1.6534855   -0.4179379   -0.4586280 
C     2.4149927    0.8651422   -0.1225969 
C     3.4232513    0.6378161    0.9891032 
O     4.2599146   -0.2378786    0.9073769 
N     3.3767625    1.5243026    2.0091853 
C     0.5442295   -0.5943357    0.5782543 
O     0.8912696   -0.6825982    1.7457136 
N    -0.7711720   -0.6930037    0.2465003 
C    -1.4243761   -0.3494607   -1.0011394 
C    -2.9103233   -0.6151543   -0.7175463 
C    -3.0392230   -0.3375755    0.7710991 
C    -1.7364016   -0.8747537    1.3345811 
C    -1.1913520    1.0980172   -1.3766510 
O    -0.7666412    1.9558599   -0.6491590 
O    -1.5783047    1.3369589   -2.6344934 
H     1.0885940   -1.3489107   -2.1857944 
H     1.9774487   -0.0194520   -2.4201529 
H     2.3431782   -1.2423218   -0.2409295 
H     1.7303445    1.6869206    0.0831695 
H     3.0130451    1.1445967   -0.9948676 
H     2.5464280    2.0689750    2.1584386 
H     3.9615261    1.3281976    2.8030312 
H    -1.0858734   -0.9511234   -1.8389671 
H    -3.5615800   -0.0091843   -1.3460214 
H    -3.1202773   -1.6649794   -0.9319564 
H    -3.1075409    0.7357734    0.9539940 
H    -3.9119434   -0.8131722    1.2171157 
H    -1.8070131   -1.9369368    1.5885794 
H    -1.3938184   -0.3501592    2.2231865 
H    -1.4238181    2.2740835   -2.8037664 
C    -0.5417498    2.7100772    2.1627445 
O     0.5566866    3.0454266    2.0175325 
O    -1.6391130    2.3982381    2.3415253 
