44
Energy = -1541.851322057
N    -1.0707227   -3.4707652   -0.7196862 
C    -1.4312679   -2.0786687   -0.9376545 
C    -2.3339256   -1.6305935    0.2226504 
C    -2.8180109   -0.2158397    0.1351922 
C    -2.1665458    0.8105283    0.8066878 
C    -2.5911615    2.1244380    0.7026860 
C    -3.6904383    2.4361256   -0.0860627 
O    -4.1503915    3.7028985   -0.2329124 
C    -4.3634398    1.4222239   -0.7567980 
C    -3.9246323    0.1158333   -0.6416090 
C    -0.1821162   -1.2086890   -0.9889814 
O    -0.1336339   -0.1760763   -1.6348110 
N     0.8380773   -1.6488311   -0.2304781 
C     2.0807608   -0.9339310   -0.1557522 
C     1.9560860    0.2919086    0.7687954 
C     3.0989165    1.2887429    0.7081541 
S     3.2011146    2.0539062   -0.9267016 
C     4.7861357    2.8765445   -0.7460690 
C     3.1323875   -1.9022870    0.3235457 
O     2.9018157   -2.9691770    0.8271260 
O     4.3766480   -1.4417515    0.1435613 
H    -1.8858994   -4.0167324   -0.4758487 
H    -0.6693835   -3.8803609   -1.5526838 
H    -1.9568576   -1.8896751   -1.8803403 
H    -1.7876921   -1.7904074    1.1558170 
H    -3.1935929   -2.3090132    0.2387478 
H    -1.3046121    0.5807405    1.4230382 
H    -2.0611141    2.9114860    1.2291784 
H    -3.5639382    4.3070275    0.2256950 
H    -5.2227439    1.6744893   -1.3649052 
H    -4.4533429   -0.6650769   -1.1774219 
H     0.7624754   -2.5608528    0.1983159 
H     2.3605679   -0.5744631   -1.1507314 
H     1.0296937    0.7870812    0.4708939 
H     1.8258822   -0.0539146    1.7984832 
H     2.9329125    2.0674920    1.4562778 
H     4.0545697    0.8093403    0.9247338 
H     4.7617174    3.6155681    0.0561219 
H     5.5828082    2.1551776   -0.5582946 
H     4.9907155    3.3888344   -1.6855649 
H     4.9738505   -2.1135551    0.4964902 
C    -1.9539935    1.1745732   -3.2233534 
O    -2.3786298    0.1946122   -3.6732891 
O    -1.5625689    2.1827895   -2.8180147 
