44
Energy = -1198.852684789
N    -1.1925987   -1.2743640   -0.6723492 
C    -0.9089914   -1.5751741    0.7145985 
C     0.4176685   -2.3319477    0.9562378 
C     1.5058528   -1.9764410   -0.0010974 
C     2.1462456   -0.7066691   -0.2276988 
C     2.0288037    0.5676133    0.3400931 
C     2.8199337    1.5937842   -0.1347990 
C     3.7371765    1.3837360   -1.1729442 
C     3.8823535    0.1396798   -1.7533965 
C     3.0837677   -0.8924851   -1.2727139 
N     3.0144011   -2.2040374   -1.6543731 
C     2.0675304   -2.8435530   -0.8957828 
C    -0.9686679   -0.3047512    1.5615643 
O    -0.2576530   -0.1942409    2.5498463 
N    -1.7863451    0.7145377    1.1994455 
C    -2.8023202    0.9053247    0.1748246 
C    -2.2296865    2.0261161   -0.6766547 
C    -1.4952723    2.8983715    0.3595841 
C    -1.4821033    2.0636549    1.6561331 
C    -3.4262274   -0.2425302   -0.5684611 
O    -3.7679674   -0.1840828   -1.7182731 
O    -3.8496686   -1.2195081    0.2633260 
H    -0.3885319   -0.8339857   -1.1042044 
H    -1.3782304   -2.1182312   -1.1973647 
H    -1.7238507   -2.2017360    1.0870507 
H     0.2200834   -3.4020362    0.8558260 
H     0.7249475   -2.1532522    1.9877129 
H     1.3379873    0.7423689    1.1521068 
H     2.7377762    2.5777935    0.3105562 
H     4.3450592    2.2088135   -1.5230268 
H     4.5946486   -0.0252880   -2.5532360 
H     3.5766696   -2.6334612   -2.3637329 
H     1.8606487   -3.8922580   -1.0434702 
H    -3.6709542    1.3157325    0.7188888 
H    -3.0059269    2.5586949   -1.2225643 
H    -1.5418426    1.5994989   -1.4068680 
H    -0.4776170    3.1137430    0.0346886 
H    -1.9978511    3.8528291    0.5162514 
H    -2.2529110    2.4042164    2.3542698 
H    -0.5324506    2.0620033    2.1831978 
H    -4.3745718   -1.8182310   -0.2808620 
C     2.1902284    0.5658458    3.7841625 
O     2.5076897   -0.5386074    3.9058899 
O     1.9066291    1.6837032    3.6803727 
