44
Energy = -1235.986058859
N     2.5546451   -2.2174101   -1.7524375 
C     1.5198388   -1.2307055   -1.9635658 
C     0.1385299   -1.9207293   -2.0332406 
C    -0.2948802   -2.4724969   -0.7188413 
C    -1.1355550   -1.8184705    0.2422162 
C    -1.8641110   -0.6255458    0.2407016 
C    -2.5639260   -0.2641343    1.3739169 
C    -2.5621502   -1.0779718    2.5155275 
C    -1.8746624   -2.2759155    2.5392402 
C    -1.1703851   -2.6367479    1.3951399 
N    -0.4078409   -3.7394881    1.1289247 
C     0.1217048   -3.6346456   -0.1320303 
C     1.4918924   -0.1799312   -0.8547060 
O     2.0007319   -0.3897818    0.2337320 
N     0.8286125    0.9606406   -1.1335425 
C     0.4631922    1.8805437   -0.0902372 
C     1.6535996    2.7879653    0.3194385 
O     1.4504563    3.3603750    1.5844798 
C     1.9116363    3.9033777   -0.6642972 
C    -0.7384127    2.6516999   -0.5689747 
O    -1.1567351    2.6139571   -1.6996660 
O    -1.2967590    3.3864671    0.3888492 
H     3.4601149   -1.8093771   -1.9464887 
H     2.5672710   -2.4393922   -0.7617765 
H     1.6940517   -0.7373255   -2.9245591 
H     0.2258454   -2.7103091   -2.7809760 
H    -0.6086359   -1.2104212   -2.3961946 
H    -1.8843040    0.0060130   -0.6397684 
H    -3.1239109    0.6627746    1.3860419 
H    -3.1156458   -0.7649988    3.3920620 
H    -1.8837449   -2.9082740    3.4191100 
H    -0.2069086   -4.4756802    1.7781929 
H     0.7718829   -4.4002160   -0.5245915 
H     0.3445436    1.0742291   -2.0107105 
H     0.1695586    1.3147086    0.7983391 
H     2.5131360    2.1087714    0.3377740 
H     1.3754136    2.6515183    2.2284658 
H     1.0943616    4.6272625   -0.6474928 
H     2.8299409    4.4268808   -0.3997806 
H     2.0144082    3.5093890   -1.6763633 
H    -2.0342148    3.8615043   -0.0148592 
C     1.3290535   -0.6356339    2.9572768 
O     1.6521585   -1.7434227    2.9554987 
O     1.0041422    0.4756105    3.0135009 
