34
Energy = -1382.105251218
N     2.7778244   -1.8341130   -0.2446267 
C     2.5135074   -0.4382471   -0.5229655 
C     2.1346642   -0.3164735   -2.0013124 
S     2.2911248    1.3343603   -2.7192554 
C     1.4385534    0.2470666    0.3218796 
O     1.3579055    1.4662043    0.3700589 
N     0.5955867   -0.5690479    0.9763248 
C    -0.5216716   -0.0937004    1.7327908 
C    -1.8576656   -0.1845395    0.9576206 
C    -1.8189024    0.5442718   -0.3357887 
C    -2.2651022    1.8070189   -0.6156608 
N    -1.9447601    2.0242519   -1.9286547 
C    -1.3284053    0.9123105   -2.3868874 
N    -1.2441073   -0.0035715   -1.4554281 
C    -0.6346457   -0.9133936    2.9955047 
O    -0.0931143   -1.9708404    3.1756644 
O    -1.4573758   -0.3488454    3.8860534 
H     2.0426200   -2.4453488   -0.5725981 
H     2.9602730   -2.0181385    0.7314922 
H     3.4288167    0.1337554   -0.3531742 
H     1.1193803   -0.6924413   -2.1465147 
H     2.8243438   -0.9449785   -2.5656177 
H     1.6844379    1.9866962   -1.7125783 
H     0.7456929   -1.5624676    0.9366200 
H    -0.3340586    0.9500476    1.9901880 
H    -2.6473476    0.2142670    1.5955195 
H    -2.0802419   -1.2379144    0.7676134 
H    -2.7710217    2.5425895   -0.0135995 
H    -2.0897027    2.8747623   -2.4416505 
H    -0.9503030    0.8295930   -3.3932929 
H    -1.5128363   -0.9481956    4.6408808 
C    -0.0270935    3.8066498    0.6698117 
O     0.2521820    4.1163167   -0.4089888 
O    -0.3401415    3.5519518    1.7545554 
