27
Energy = -1157.217190350
N     2.6638485    1.2673582    0.7200928 
C     2.3939234    0.3719925   -0.3795544 
C     3.1232889   -0.9504379   -0.1751664 
S     4.9195481   -0.7866248   -0.2023658 
C     0.9283481    0.0574706   -0.7059738 
O     0.6331840   -0.6745462   -1.6308772 
N    -0.0000165    0.6295218    0.0929519 
C    -1.4083780    0.5001746   -0.1979304 
C    -1.9502993   -0.8829714    0.1182824 
C    -3.2779633   -1.1186354   -0.5419632 
O    -3.6852030   -0.5324454   -1.5071379 
O    -3.9550047   -2.1120977    0.0494559 
C    -2.1974807    1.5624877    0.5345858 
O    -3.2712263    1.3918361    1.0345913 
O    -1.5583450    2.7459698    0.5572935 
H     2.3941150    2.2238797    0.5525219 
H     2.3040907    0.9435702    1.6063628 
H     2.7935468    0.8297403   -1.2891028 
H     2.8608294   -1.6278766   -0.9862359 
H     2.8010086   -1.4119252    0.7626548 
H     4.9623904    0.2479207    0.6524563 
H     0.3004279    1.3317416    0.7446856 
H    -1.5697418    0.6779825   -1.2688224 
H    -2.0326748   -1.0529710    1.1911749 
H    -1.2559218   -1.6190554   -0.2940429 
H    -4.7744615   -2.2235518   -0.4484293 
H    -2.1418330    3.3674925    1.0104925 
