27
Energy = -648.0492528562
N    -1.5435608    1.3479970   -0.2426167 
C    -1.4090042    0.7179782    1.0713594 
C    -2.4435134   -0.4149669    1.0885297 
C    -2.6391072   -0.7137214   -0.3922318 
C    -2.5930776    0.6748160   -1.0077188 
C    -0.0075658    0.1659432    1.3241844 
O     0.2831668   -0.3619566    2.3850114 
N     0.8455188    0.3062672    0.2977637 
C     2.2105084   -0.1197052    0.3868011 
C     2.3686486   -1.6272243    0.1863772 
C     3.0154223    0.6414925   -0.6362167 
O     2.5559497    1.3282300   -1.5083559 
O     4.3308234    0.4450654   -0.4787013 
H    -1.6809841    2.3438454   -0.1821576 
H    -1.5915106    1.4201178    1.8896240 
H    -3.3786045   -0.0533037    1.5220448 
H    -2.1034754   -1.2625170    1.6811285 
H    -1.8110983   -1.3184352   -0.7708954 
H    -3.5687008   -1.2396513   -0.6083595 
H    -3.5697006    1.1644874   -0.8940224 
H    -2.3487389    0.6604288   -2.0720652 
H     0.5123926    0.8087204   -0.5149343 
H     2.5940875    0.1321212    1.3806429 
H     1.7743678   -2.1382575    0.9423162 
H     3.4110439   -1.9256999    0.2926387 
H     2.0129987   -1.9194224   -0.8031616 
H     4.7735137    0.9372508   -1.1808846 
