41
Energy = -955.5747935968
N    -2.1715289   -0.4384392   -2.1989653 
C    -1.5393629    0.0929196   -1.0116829 
C    -2.4493052   -0.0627159    0.2261752 
C    -2.7405372   -1.5266469    0.5238321 
C    -3.7489805    0.7193884    0.0626213 
C    -3.5777904    2.2223997   -0.0716310 
C    -0.1893302   -0.5674434   -0.7368522 
O     0.0998363   -1.6537423   -1.2078132 
N     0.6413729    0.1255842    0.0710800 
C     1.8735452   -0.4160635    0.5868648 
C     3.1112813    0.2401368   -0.0592550 
C     3.1110710   -0.0229909   -1.5568980 
C     4.4075112   -0.2402363    0.5755142 
C     1.8672005   -0.1870778    2.0817240 
O     1.4178204    0.7993258    2.6038554 
O     2.4247286   -1.1880300    2.7679044 
H    -1.7534872   -0.0352760   -3.0265343 
H    -1.9733957   -1.4319965   -2.2483836 
H    -1.3638094    1.1620693   -1.1608203 
H    -1.9062850    0.3611778    1.0806800 
H    -3.3141432   -1.9764927   -0.2895391 
H    -3.3329810   -1.6163344    1.4360976 
H    -1.8287490   -2.1123672    0.6526822 
H    -4.3767271    0.5056466    0.9331539 
H    -4.2759565    0.3256368   -0.8099698 
H    -3.0783628    2.4965872   -1.0030512 
H    -2.9927358    2.6335622    0.7560749 
H    -4.5464297    2.7253774   -0.0714042 
H     0.3168528    0.9762203    0.5019009 
H     1.8831968   -1.4861522    0.3747558 
H     3.0143607    1.3186784    0.1111502 
H     3.9479240    0.4933767   -2.0307216 
H     2.1912756    0.3243268   -2.0273134 
H     3.2070474   -1.0913407   -1.7601181 
H     4.4864836    0.0373154    1.6272101 
H     4.4946592   -1.3271818    0.5084192 
H     5.2621510    0.1954877    0.0565793 
H     2.4053604   -0.9383942    3.7010285 
C     1.2408631   -3.9320566   -2.2980310 
O     0.2207916   -4.2161924   -2.7612638 
O     2.2825156   -3.6865490   -1.8558283 
