28
Energy = -1232.404284558
N     2.1309857   -1.7038545   -0.3492209 
C     2.1588877   -0.4060334    0.2696845 
C     3.0046064    0.5603166   -0.5569727 
S     4.7683248    0.1628816   -0.6037745 
C     0.8193969    0.2822336    0.5613262 
O     0.7826269    1.3553123    1.1443397 
N    -0.2849796   -0.3593699    0.1442802 
C    -1.6024326    0.1538185    0.3938605 
C    -1.9799210    1.1930611   -0.6852382 
O    -3.1695971    1.8719157   -0.4232682 
C    -2.5598848   -1.0093898    0.3817165 
O    -2.3273943   -2.0573489   -0.1653444 
O    -3.6976615   -0.7451650    1.0166108 
H     1.7117767   -2.4267821    0.2139297 
H     1.7411989   -1.7064449   -1.2802437 
H     2.6333102   -0.5067467    1.2504034 
H     2.8701583    1.5745765   -0.1890316 
H     2.6635349    0.5407080   -1.5955576 
H     5.1039980    0.8522099    0.4961677 
H    -0.2178749   -1.2707076   -0.2796047 
H    -1.6230892    0.6493383    1.3665824 
H    -1.1234265    1.8700624   -0.7671221 
H    -2.0989329    0.6815903   -1.6432499 
H    -3.0155716    2.4720987    0.3100540 
H    -4.2733330   -1.5128768    0.9065896 
C    -0.4475270    3.7387667    1.9707074 
O     0.5900950    4.1624127    2.2390425 
O    -1.5142906    3.3585384    1.7169985 
