33
Energy = -875.7829744622
N     2.7008903   -0.8790368   -1.8877725 
C     2.2002791   -0.6114645   -0.5587617 
C     2.9481296    0.6681383   -0.1838162 
C     4.2905267    0.5369133   -0.9337823 
C     4.1372588   -0.7361375   -1.7783598 
C     0.6850827   -0.6122250   -0.5580738 
O     0.0576669   -1.4464131   -1.1828748 
N     0.0913499    0.3235639    0.2135992 
C    -1.3388844    0.4287243    0.3270480 
C    -1.8860137   -0.6416560    1.2903176 
C    -3.3677629   -0.5947745    1.6122165 
C    -4.2706747   -0.7154759    0.4189288 
O    -3.9280694   -0.9376834   -0.7092200 
O    -5.5605251   -0.5575597    0.7656620 
C    -1.6425248    1.8307215    0.7910490 
O    -0.8429610    2.5718025    1.2996130 
O    -2.9202004    2.1715309    0.5889421 
H     2.3821445   -1.7678075   -2.2458202 
H     2.4869436   -1.4044234    0.1608425 
H     3.0780266    0.7712400    0.8941768 
H     2.4005381    1.5402714   -0.5454310 
H     5.1383390    0.4634485   -0.2527577 
H     4.4569993    1.4056238   -1.5700830 
H     4.6094592   -1.5853896   -1.2570831 
H     4.5988015   -0.6503225   -2.7632406 
H     0.6327626    1.0361247    0.6745469 
H    -1.7998705    0.2678279   -0.6497572 
H    -1.6380723   -1.5964142    0.8245341 
H    -1.3216674   -0.5737878    2.2235086 
H    -3.6510465    0.3103326    2.1519940 
H    -3.6192002   -1.4230334    2.2815530 
H    -6.0768047   -0.6611469   -0.0430546 
H    -3.0308204    3.0685882    0.9289562 
