41
Energy = -1142.573500410
N    -1.0810318    1.8107493    0.4560183 
C    -1.6614923    0.5845064   -0.0456862 
C    -2.8691983    1.0925991   -0.8416619 
C    -3.2603337    2.4058422   -0.1364100 
C    -2.2011196    2.5882984    0.9549252 
C    -0.6666544   -0.1874727   -0.8958206 
O    -0.0033320    0.3366523   -1.7677659 
N    -0.5885129   -1.5090289   -0.6033397 
C     0.4114631   -2.3540196   -1.1798574 
C     1.6197636   -2.5674945   -0.2268750 
C     2.0825630   -1.2623249    0.3415282 
C     2.8084249   -0.3633597   -0.4319943 
C     3.0926013    0.9084709    0.0250186 
C     2.6413540    1.3145045    1.2755772 
O     2.8375853    2.5696167    1.7460076 
C     1.9569699    0.4159914    2.0836500 
C     1.6826657   -0.8570519    1.6097370 
C    -0.1849082   -3.6966628   -1.5151214 
O    -1.1914059   -4.1396261   -1.0320088 
O     0.5788782   -4.3789475   -2.3774295 
H    -0.3499937    1.6521812    1.1371195 
H    -2.0158938   -0.0679453    0.7725514 
H    -2.5591842    1.2862711   -1.8676587 
H    -3.6739954    0.3581670   -0.8574753 
H    -3.2293903    3.2342035   -0.8427084 
H    -4.2639950    2.3669956    0.2867529 
H    -1.9128679    3.6306801    1.1021786 
H    -2.5818947    2.2076770    1.9160722 
H    -1.1747721   -1.8945024    0.1164691 
H     0.7607309   -1.8636722   -2.0893010 
H     1.3145618   -3.2371252    0.5821499 
H     2.4104548   -3.0703423   -0.7869032 
H     3.1247220   -0.6469398   -1.4293076 
H     3.6287871    1.6068274   -0.6070217 
H     3.1254014    3.1315641    1.0233281 
H     1.6337914    0.7312072    3.0680456 
H     1.1250001   -1.5443445    2.2370081 
H     0.1662097   -5.2433405   -2.4985712 
C     0.2465811    3.2705561   -1.6852208 
O    -0.7395093    3.3699412   -2.2805458 
O     1.2626352    3.2532628   -1.1294720 
