34
Energy = -1059.214758464
N     0.4148037   -2.2678274   -1.9144207 
C     1.0799984   -1.6906186   -0.7604868 
C     1.7464850   -0.3742357   -1.2068855 
C     2.1711672    0.5223520   -0.0992981 
C     3.3644105    0.5766690    0.5638404 
N     3.2175390    1.5493521    1.5151316 
C     1.9667624    2.0435249    1.4063083 
N     1.3109692    1.4479807    0.4424703 
C     0.0836727   -1.3650703    0.3421394 
O     0.4047122   -1.4137288    1.5165830 
N    -1.1085245   -0.9370565   -0.1062635 
C    -1.9874975   -0.1763280    0.7213741 
C    -2.3550041    1.1703239    0.0516922 
O    -1.2922660    1.7572843   -0.6269125 
C    -3.2524333   -0.9313075    1.0564149 
O    -3.6272700   -1.9450282    0.5381755 
O    -3.9531826   -0.2926125    2.0088293 
H     1.0357799   -2.3036108   -2.7115088 
H     0.1000022   -3.2099979   -1.7254522 
H     1.8357084   -2.3350688   -0.2972243 
H     2.6055322   -0.6239332   -1.8354572 
H     1.0263397    0.1623956   -1.8292908 
H     4.2746954    0.0134924    0.4532041 
H     3.9040294    1.8200861    2.1954601 
H     1.5870331    2.8318917    2.0366662 
H    -1.2413543   -0.9567096   -1.1060583 
H    -1.4580252    0.0180710    1.6564505 
H    -2.7720746    1.8197031    0.8304502 
H    -3.1454829    1.0011334   -0.6875697 
H    -0.4542411    1.6886895   -0.1252372 
H    -4.7571971   -0.8064855    2.1528604 
C     0.8209740    0.0465001    3.8449914 
O     1.8942019   -0.3723705    3.9436363 
O    -0.2407437    0.5051437    3.7972609 
