42
Energy = -1101.884975833
N    -1.4701992   -1.8517469   -1.8457904 
C    -1.7694418   -0.4645039   -1.5702278 
C    -2.4145685   -0.3012511   -0.1832960 
C    -3.7940506   -0.9408313   -0.1606600 
C    -1.5097677   -0.8432725    0.9243224 
C    -1.8959994   -0.3516913    2.3089559 
C    -0.6302716    0.5500201   -1.7055420 
O    -0.8558011    1.7501078   -1.7084714 
N     0.6119126    0.0438245   -1.8126908 
C     1.7772478    0.8711278   -1.9252304 
C     2.0402616    1.7342335   -0.6829295 
C     2.1083874    0.9467912    0.5741585 
C     1.4603248    1.1785018    1.7552225 
N     1.8710234    0.1824807    2.6012396 
C     2.7289355   -0.6056703    1.9137028 
N     2.8930117   -0.1736132    0.6892980 
C     2.9417990   -0.0257815   -2.2796241 
O     2.8530540   -1.2033005   -2.5101786 
O     4.0874351    0.6499488   -2.3656778 
H    -0.8136058   -2.2544214   -1.1929462 
H    -1.1286565   -1.9970119   -2.7841003 
H    -2.5077267   -0.1294294   -2.3056140 
H    -2.5203285    0.7781132   -0.0360963 
H    -4.2659240   -0.8391716    0.8178455 
H    -3.7252474   -2.0028177   -0.4022222 
H    -4.4528545   -0.4712575   -0.8942025 
H    -0.4737394   -0.5504750    0.7273998 
H    -1.5332283   -1.9381120    0.9098119 
H    -1.8474824    0.7391078    2.3601064 
H    -2.9107987   -0.6480234    2.5799695 
H    -1.2262583   -0.7550912    3.0719888 
H     0.7559169   -0.9525607   -1.8325992 
H     1.6538972    1.5639852   -2.7668609 
H     1.2306533    2.4595753   -0.6184888 
H     2.9722090    2.2803255   -0.8445240 
H     0.7571882    1.9371910    2.0525005 
H     1.5769997    0.0552480    3.5524201 
H     3.2056830   -1.4700125    2.3497693 
H     4.7774728    0.0071063   -2.5693789 
C     2.5251306   -3.0810182   -0.3431258 
O     1.3785696   -2.9552868   -0.4552884 
O     3.6583474   -3.2529774   -0.2072519 
