41
Energy = -1046.798075435
N     3.2521424    1.8915686    1.2478967 
C     2.0763374    1.2812799    0.6640986 
C     2.4822266    0.5441266   -0.6367960 
O     1.4261667   -0.2194214   -1.1807574 
C     2.9235754    1.5290595   -1.6919373 
C     1.4093124    0.2844294    1.5992776 
O     2.0539904   -0.3709150    2.4073633 
N     0.0850251    0.1241697    1.4266403 
C    -0.5814234   -1.0045370    2.0067181 
C    -2.0316463   -1.0575855    1.5185001 
C    -2.1569585   -1.2753083    0.0051229 
C    -3.1482486   -0.3573134   -0.6994040 
C    -2.8603977    1.1305096   -0.5472434 
N    -1.4444457    1.4287910   -0.7299943 
C     0.1411497   -2.2874506    1.6300593 
O     0.7924376   -2.4534184    0.6272684 
O    -0.0666363   -3.2500098    2.5231688 
H     3.7585704    1.1686047    1.7489976 
H     2.9796164    2.5712374    1.9456253 
H     1.3569379    2.0599892    0.3924907 
H     3.3217349   -0.1115973   -0.3728973 
H     1.2740663   -0.9960120   -0.6246149 
H     2.0723561    2.1377804   -2.0088667 
H     3.3060893    0.9991122   -2.5645865 
H     3.6978097    2.1840786   -1.2962396 
H    -0.3831931    0.6233292    0.6601984 
H    -0.5637223   -0.9442282    3.0971862 
H    -2.5548965   -1.8404298    2.0691544 
H    -2.4924151   -0.1123412    1.8152897 
H    -1.1784996   -1.1494560   -0.4619120 
H    -2.4385941   -2.3113828   -0.1947207 
H    -3.1461769   -0.6111438   -1.7644372 
H    -4.1664579   -0.5440886   -0.3446568 
H    -3.1385468    1.4645132    0.4572532 
H    -3.5087340    1.6788048   -1.2425088 
H    -1.0625090    0.9904780   -1.5599183 
H    -1.2916203    2.4239801   -0.8194218 
H     0.4633233   -4.0123308    2.2566774 
C     3.5677159   -2.8708514    1.7417717 
O     4.1559883   -2.2377242    0.9753731 
O     3.0107723   -3.5392730    2.5062958 
