43
Energy = -1119.121914364
N     0.6542309    0.4403353    2.9739816 
C    -0.3360453    0.4117517    1.9021645 
C    -0.2801324    1.7306748    1.1347337 
C    -1.1313495    1.8508449   -0.1234307 
C    -2.6340667    1.6329599    0.0570066 
N    -3.0383729    0.2502964    0.0272565 
C    -3.2124836   -0.3829856   -1.1736317 
N    -3.3407819    0.2898473   -2.2613548 
N    -3.2909751   -1.7595218   -1.0522558 
C    -0.1445394   -0.8583073    1.0696112 
O    -1.0460519   -1.6935761    1.0447021 
N     1.0016808   -1.0771382    0.4026381 
C     2.2179811   -0.2920497    0.4541234 
C     3.3061317   -1.3595810    0.2896019 
C     2.6669671   -2.3515822   -0.6765604 
C     1.1957944   -2.3598908   -0.2744762 
C     2.3575535    0.7483140   -0.6394834 
O     3.0921131    1.6937450   -0.5572530 
O     1.6148996    0.4909457   -1.7246765 
H     0.4689374   -0.2865863    3.6524621 
H     0.6111583    1.3260381    3.4612597 
H    -1.3530556    0.2912224    2.2936603 
H    -0.5947856    2.5056101    1.8448406 
H     0.7605245    1.9637609    0.8968034 
H    -0.7791261    1.1607223   -0.8928606 
H    -0.9699423    2.8547272   -0.5259541 
H    -3.1664599    2.1264652   -0.7546599 
H    -2.9740199    2.0786623    0.9974009 
H    -2.6889175   -0.3452079    0.7607935 
H    -3.5495238   -0.3326032   -3.0338459 
H    -3.1481697   -2.2423365   -1.9228779 
H    -2.7208916   -2.1433649   -0.3102845 
H     2.2917607    0.2309602    1.4060437 
H     4.2491729   -0.9418298   -0.0599098 
H     3.4778653   -1.8225342    1.2633266 
H     3.1118699   -3.3437674   -0.6148481 
H     2.7763065   -2.0012492   -1.7038163 
H     0.9535607   -3.1653733    0.4221952 
H     0.5202321   -2.4478320   -1.1256775 
H     1.7591243    1.2108578   -2.3530007 
C    -0.6512577   -0.2280052   -3.5757888 
O    -0.4209771    0.8747302   -3.8371821 
O    -0.8372095   -1.3475792   -3.3473269 
