30
Energy = -836.5233399560
N    -1.5658804    1.3612935   -0.3054567 
C    -1.5270167    0.7522980    1.0239767 
C    -2.5936022   -0.3505945    0.9999885 
C    -2.7165237   -0.6675485   -0.4848549 
C    -2.5926365    0.7083185   -1.1176680 
C    -0.1592706    0.1673031    1.3669168 
O     0.0459368   -0.3520890    2.4544597 
N     0.7563191    0.2698139    0.3962471 
C     2.1041592   -0.1911991    0.5616549 
C     2.2352401   -1.7015594    0.3660752 
C     2.9805822    0.5491787   -0.4169221 
O     2.5833396    1.2468383   -1.3110294 
O     4.2796816    0.3194289   -0.1916680 
H    -1.6718182    2.3622054   -0.2704050 
H    -1.7358949    1.4736230    1.8190151 
H    -3.5395728    0.0450799    1.3760196 
H    -2.3125367   -1.1977423    1.6231794 
H    -1.8889586   -1.3041398   -0.8081884 
H    -3.6492224   -1.1678392   -0.7440322 
H    -3.5577294    1.2301684   -1.0656688 
H    -2.2904029    0.6688430   -2.1663171 
H     0.4795005    0.7633674   -0.4433627 
H     2.4406220    0.0485727    1.5742575 
H     1.5749199   -2.2004347    1.0736856 
H     3.2583062   -2.0270006    0.5494885 
H     1.9449361   -1.9834076   -0.6475382 
H     4.7712952    0.8010133   -0.8681881 
C     1.7204079   -1.4402647    4.4112701 
O     0.7955331   -1.7662841    5.0212955 
O     2.6812461   -1.1377400    3.8385719 
