43
Energy = -1160.063805721
N     3.5446424   -0.1561583   -1.3135852 
C     2.6146043   -0.4543581   -0.2496400 
C     3.3067760   -0.3099164    1.1062170 
C     4.5085073   -1.2320062    1.2456837 
C     5.7117670   -0.8795842    0.4166479 
O     6.4005565   -1.6667876   -0.1717041 
O     6.0162206    0.4307661    0.4905133 
C     1.3913076    0.4625475   -0.2657364 
O     1.4644018    1.6137559   -0.6520799 
N     0.2555119   -0.0873940    0.2205231 
C    -0.9909508    0.6428663    0.2793783 
C    -1.8850388    0.3018907   -0.9152253 
C    -3.1387028    1.1474624   -1.0895551 
C    -4.2808401    0.8922785   -0.1097633 
C    -4.7369452   -0.5563537   -0.0211003 
N    -5.0375972   -1.0987108   -1.3376562 
C    -1.6285027    0.2884302    1.6043248 
O    -1.8686242   -0.8396559    1.9527127 
O    -1.8814247    1.3505676    2.3716608 
H     3.1857509   -0.4747030   -2.2033274 
H     3.6415998    0.8511843   -1.3817305 
H     2.2883966   -1.4944469   -0.3593343 
H     3.6143882    0.7302522    1.2367489 
H     2.5899023   -0.5335648    1.9000727 
H     4.2496722   -2.2631949    1.0045931 
H     4.8484566   -1.2182427    2.2865127 
H     6.8081372    0.5513341   -0.0463613 
H     0.2296602   -1.0720811    0.4313400 
H    -0.7398402    1.7028559    0.2631587 
H    -2.1464338   -0.7590964   -0.8789957 
H    -1.2500985    0.4350810   -1.7939063 
H    -3.5099075    0.9579539   -2.0981319 
H    -2.8663755    2.2070882   -1.0523438 
H    -4.0216439    1.2363126    0.8949289 
H    -5.1297940    1.5137257   -0.4166347 
H    -3.9454206   -1.1674986    0.4167766 
H    -5.5819356   -0.6079688    0.6811741 
H    -5.2592667   -2.0827671   -1.2744202 
H    -5.8470291   -0.6404757   -1.7368927 
H    -2.2763990    1.0232784    3.1907040 
C    -1.5779755   -3.4008382    0.6605045 
O    -0.4477245   -3.1887500    0.5128306 
O    -2.6992360   -3.6418679    0.7875814 
