36
Energy = -1155.516478663
N    -3.1858534    1.7020480   -0.4562761 
C    -2.4452900    1.0167487    0.5911215 
C    -3.1099030   -0.3055157    0.9769008 
C    -2.9994837   -1.4071350   -0.0625407 
O    -2.6857505   -2.5449390    0.2418874 
N    -3.2816605   -1.0212767   -1.3196883 
C    -1.0018549    0.8837288    0.0992880 
O    -0.5542665    1.6720882   -0.7149288 
N    -0.2626299   -0.1034325    0.6372992 
C     1.1027479   -0.3127382    0.2243860 
C     2.0550015    0.6202987    0.9937341 
C     3.5386102    0.4044426    0.7630205 
C     3.9757912    0.5948066   -0.6610834 
O     3.3037655    1.0368327   -1.5514185 
O     5.2557813    0.2232165   -0.8337132 
C     1.4421730   -1.7609868    0.4723626 
O     0.9323660   -2.4478113    1.3154508 
O     2.4144590   -2.1981454   -0.3347953 
H    -3.9468231    2.2422781   -0.0705615 
H    -2.5446496    2.3286933   -0.9322514 
H    -2.3701087    1.6216118    1.5076232 
H    -2.7039922   -0.6978644    1.9077055 
H    -4.1706420   -0.1116056    1.1600252 
H    -3.1625451   -1.6861344   -2.0631110 
H    -3.4414959   -0.0360363   -1.5018757 
H    -0.6601817   -0.7827811    1.2680629 
H     1.1933508   -0.0923194   -0.8397508 
H     1.7770867    1.6334365    0.7003281 
H     1.8444435    0.5104518    2.0599978 
H     3.8733473   -0.5817403    1.0896954 
H     4.1092828    1.1184399    1.3645354 
H     5.4689274    0.3896938   -1.7601120 
H     2.5901817   -3.1172203   -0.0943205 
C    -1.4477442   -3.4812342    2.6148342 
O    -1.5557635   -2.4383632    3.1122811 
O    -1.3327592   -4.5410200    2.1749194 
