39
Energy = -1045.615705777
N    -0.9623345    0.4574157   -3.0883756 
C    -1.2407020    0.9745755   -1.7650071 
C    -2.1403180   -0.0185014   -1.0018278 
C    -1.3644265   -1.2368037   -0.5153715 
C    -2.9111434    0.6587373    0.1276590 
C    -3.9456398   -0.2396671    0.7848957 
C    -0.0340824    1.3682651   -0.9132812 
O    -0.1393090    2.1016239    0.0590907 
N     1.1502787    0.8451859   -1.2857610 
C     2.3550296    1.1269805   -0.5642382 
C     2.4001401    0.4380234    0.7951340 
C     2.3850563   -1.0655078    0.6529530 
O     2.8085986   -1.6235472   -0.3417589 
N     1.9010108   -1.7443262    1.7137838 
C     3.5313194    0.7856865   -1.4516394 
O     3.4513203    0.5143913   -2.6188931 
O     4.6919967    0.8960700   -0.8004065 
H    -0.3445152    1.0551561   -3.6183344 
H    -0.5729987   -0.4748258   -3.0745105 
H    -1.8083071    1.9028413   -1.8788010 
H    -2.8663382   -0.3514064   -1.7522547 
H    -0.7407156   -1.6768570   -1.2960398 
H    -0.7092173   -0.9739607    0.3193667 
H    -2.0422199   -2.0176106   -0.1698389 
H    -3.4117098    1.5424438   -0.2797871 
H    -2.2053755    1.0343634    0.8724215 
H    -4.6419831   -0.6486238    0.0476097 
H    -3.4857537   -1.0809215    1.3067886 
H    -4.5310748    0.3160268    1.5195415 
H     1.2239823    0.2700506   -2.1088022 
H     2.4087128    2.2057330   -0.3742381 
H     1.5512932    0.7957727    1.3795305 
H     3.3134274    0.7200384    1.3243015 
H     1.8747157   -2.7477024    1.6743062 
H     1.4950826   -1.2747339    2.5006296 
H     5.3875634    0.6601349   -1.4262231 
C     2.5976497   -2.2649927   -3.0956906 
O     1.4928496   -1.9117572   -3.1054293 
O     3.6858316   -2.6453349   -3.1242331 
