49
Energy = -1239.362476575
N    -3.3335768   -0.3448990    2.2715404 
C    -3.0295307   -0.0627801    0.8795323 
C    -3.9953062    0.9758124    0.2953758 
C    -3.6552791    1.2575847   -1.1627565 
C    -5.4595792    0.5417395    0.4434175 
C    -6.1440619    1.0206490    1.7129848 
C    -1.5969193    0.4361880    0.7323974 
O    -1.1941249    1.3931471    1.3770660 
N    -0.8098038   -0.2368562   -0.1269194 
C     0.5582612    0.1406691   -0.3676901 
C     1.4884489   -0.4205261    0.7333671 
C     2.9224732   -0.0569784    0.5879443 
C     3.9278550   -0.7814603   -0.1336745 
C     3.9290962   -1.9749665   -0.8612263 
C     5.1028942   -2.3962328   -1.4532238 
C     6.2835868   -1.6499973   -1.3331613 
C     6.3140002   -0.4676180   -0.6197263 
C     5.1295864   -0.0447863   -0.0268348 
N     4.8549622    1.0677604    0.7225680 
C     3.5346964    1.0564001    1.0905611 
C     0.9451358   -0.4013181   -1.7203925 
O     0.4911756   -1.4156678   -2.1854167 
O     1.8597619    0.3461627   -2.3310971 
H    -2.7568198   -1.1047137    2.6099851 
H    -3.0896413    0.4701674    2.8238639 
H    -3.1547754   -0.9933145    0.3131929 
H    -3.8414458    1.9004638    0.8642801 
H    -3.7750796    0.3577221   -1.7739209 
H    -2.6318407    1.6153746   -1.2891478 
H    -4.3228137    2.0200661   -1.5668238 
H    -5.5184847   -0.5500745    0.3844121 
H    -6.0153671    0.9216398   -0.4193057 
H    -5.6651767    0.6000370    2.5958926 
H    -7.1962823    0.7281540    1.7235070 
H    -6.1043189    2.1106263    1.7872666 
H    -1.1635402   -1.0233205   -0.6471933 
H     0.6381909    1.2281587   -0.3645668 
H     1.3680787   -1.5072644    0.7481757 
H     1.0901359   -0.0351924    1.6728976 
H     3.0229853   -2.5611832   -0.9649361 
H     5.1165182   -3.3198521   -2.0187641 
H     7.1890860   -2.0078565   -1.8073784 
H     7.2282709    0.1068513   -0.5283312 
H     5.5172564    1.7751483    0.9771963 
H     3.1168715    1.8513952    1.6877484 
H     2.1291572   -0.1219135   -3.1319388 
C     0.0237871    3.3859784    2.8697363 
O    -1.0030829    3.7201396    3.2788261 
O     1.0764142    3.0876398    2.4889398 
