37
Energy = -1061.388600614
N    -2.9749383   -0.7974186   -0.9482175 
C    -2.8379049    0.5000149   -0.2806271 
C    -3.4253413    0.3427626    1.1423410 
C    -4.2071813   -0.9640917    1.0734652 
C    -3.3979499   -1.7657880    0.0622350 
C    -1.3983975    0.9861579   -0.2105918 
O    -1.1113889    2.0205419    0.3745033 
N    -0.5093922    0.1978462   -0.8262002 
C     0.8977599    0.4790777   -0.8276978 
C     1.5538817   -0.0015096    0.4864851 
C     3.0108334    0.2653079    0.5929650 
C     3.6386841    1.3701609    1.1001875 
N     4.9774764    1.1311991    0.9434514 
C     5.1079231   -0.0853208    0.3619954 
N     3.9433225   -0.6331931    0.1366161 
C     1.5101402   -0.2188615   -2.0176474 
O     1.0901318   -1.2420576   -2.4878745 
O     2.5832811    0.4217662   -2.4836713 
H    -3.6633848   -0.7402802   -1.6829735 
H    -3.3798511    1.2709607   -0.8341691 
H    -4.0309702    1.2002293    1.4290175 
H    -2.6143404    0.2681331    1.8695427 
H    -4.2983831   -1.4548145    2.0435333 
H    -5.2161196   -0.7914055    0.6877923 
H    -3.9447140   -2.5866297   -0.4021974 
H    -2.5122435   -2.1930247    0.5443743 
H    -0.8648528   -0.6328559   -1.2830357 
H     1.0487349    1.5560843   -0.9148293 
H     1.3767047   -1.0748543    0.5801066 
H     1.0170895    0.5076990    1.2876657 
H     3.2547803    2.2723493    1.5441011 
H     5.7240183    1.7398093    1.2250736 
H     6.0686011   -0.5204419    0.1341193 
H     2.9736775   -0.1420044   -3.1631539 
C    -0.0120961    3.8770488    2.0883579 
O    -1.0153837    4.4452330    2.1487087 
O     1.0174234    3.3458194    2.0663906 
