41
Energy = -1009.676573004
N     2.3682005    1.9987693   -1.1100299 
C     2.0271090    0.5863648   -1.1747411 
C     3.3570752   -0.1892048   -1.3674646 
C     4.4126546    0.8029229   -0.8975253 
C     3.8043781    2.1272172   -1.3424573 
C     1.3287531    0.1561641    0.1065210 
O     1.4407764    0.7808489    1.1488595 
N     0.6014440   -0.9714253    0.0090288 
C    -0.0546984   -1.5669518    1.1428777 
C    -1.3554046   -0.8493773    1.5244484 
C    -2.4121755   -0.8841316    0.4341606 
C    -3.6351929   -0.0175643    0.7137987 
C    -3.4064016    1.4864780    0.6373869 
N    -2.7018307    2.0068446    1.8033316 
C    -0.3009011   -3.0168420    0.8117474 
O    -0.1161279   -3.5180070   -0.2665253 
O    -0.7782537   -3.6962580    1.8587733 
H     2.1494498    2.3100980   -0.1697594 
H     1.3519344    0.3797830   -2.0131628 
H     3.4943294   -0.4141918   -2.4273928 
H     3.3712357   -1.1361579   -0.8263308 
H     4.4956916    0.7801628    0.1918213 
H     5.3982812    0.6057990   -1.3221884 
H     4.1962433    2.9930754   -0.8075189 
H     3.9957228    2.2883511   -2.4097216 
H     0.5842946   -1.4965460   -0.8506688 
H     0.6142529   -1.5219938    2.0076340 
H    -1.7406715   -1.2985270    2.4428904 
H    -1.0981688    0.1797171    1.7618514 
H    -1.9663394   -0.5586936   -0.5118749 
H    -2.7436406   -1.9164223    0.2738342 
H    -4.4088894   -0.2713828   -0.0166524 
H    -4.0558196   -0.2685146    1.6951973 
H    -4.3776754    1.9764563    0.4762680 
H    -2.7981117    1.7088097   -0.2449336 
H    -2.4895997    2.9880261    1.6796599 
H    -3.2860664    1.9318152    2.6265475 
H    -0.9286051   -4.6022058    1.5618512 
C     0.1489750    2.3882796    3.0928751 
O     0.2277252    3.3080447    2.3947664 
O     0.0680287    1.5022943    3.8316300 
