37
Energy = -1313.153516217
N     0.5370909   -2.3247766   -0.0922573 
C     0.8911458   -0.9484613   -0.4050413 
C     2.1453605   -0.7680078   -1.2460784 
C     3.3871480   -1.3868071   -0.6272412 
S     3.7274360   -0.9081242    1.0819216 
C     3.8836321    0.8739339    0.9044457 
C    -0.2907435   -0.2502668   -1.0653560 
O    -0.2125861    0.2698859   -2.1703966 
N    -1.4483286   -0.2191127   -0.3728895 
C    -2.5770374    0.4688439   -0.9561227 
C    -3.6913912    0.2647034    0.0768955 
C    -2.9276460    0.1520738    1.3911890 
C    -1.6864055   -0.6381662    1.0017993 
C    -2.2698542    1.9426809   -1.1405687 
O    -1.5444618    2.5903750   -0.4338070 
O    -2.9550915    2.4599532   -2.1632394 
H     1.1967338   -2.7114940    0.5693310 
H     0.5633963   -2.8975118   -0.9264267 
H     1.0570285   -0.4487664    0.5560338 
H     1.9828560   -1.2092256   -2.2343067 
H     2.3019972    0.2967477   -1.4226414 
H     4.2634405   -1.1587242   -1.2380560 
H     3.3059863   -2.4758041   -0.5875309 
H     4.1775370    1.2608867    1.8794945 
H     4.6603606    1.1236180    0.1804696 
H     2.9457778    1.3429763    0.6087263 
H    -2.8279619    0.0572419   -1.9336946 
H    -4.4247295    1.0703956    0.0625179 
H    -4.2130552   -0.6678031   -0.1470960 
H    -2.6402824    1.1450454    1.7405678 
H    -3.5025050   -0.3372919    2.1768907 
H    -1.8502853   -1.7168996    1.0469881 
H    -0.8290977   -0.4083677    1.6342450 
H    -2.6937187    3.3861448   -2.2406376 
C     0.7768997    3.0935538   -2.1340299 
O     1.5550742    2.7845955   -1.3357876 
O     0.0295513    3.4394568   -2.9460499 
