39
Energy = -1045.609684121
N     2.7762696   -1.6777026   -0.2608898 
C     2.8187810   -0.7260798    0.8378119 
C     3.6150151    0.5145940    0.4518107 
C     3.0407289    1.2278997   -0.7530575 
O     1.8790025    1.5780978   -0.8040566 
N     3.9068853    1.4555573   -1.7695613 
C     1.4208787   -0.3206294    1.3160738 
O     1.2937568    0.3792752    2.3043802 
N     0.4121528   -0.8450821    0.6013820 
C    -0.9673946   -0.4959789    0.8384674 
C    -1.4835942    0.4202719   -0.2764862 
C    -2.9118484    0.9575727   -0.1428929 
C    -3.1906425    1.5358577    1.2383989 
C    -3.9832837   -0.0511731   -0.5414594 
C    -1.7782516   -1.7635081    0.9932642 
O    -2.5127465   -2.0179013    1.9069928 
O    -1.5927567   -2.6061991   -0.0405332 
H     3.6474658   -1.6887886   -0.7720822 
H     2.6088102   -2.6165059    0.0738283 
H     3.2976753   -1.1325115    1.7376533 
H     4.6613244    0.2389394    0.2944441 
H     3.5736741    1.2140724    1.2884374 
H     3.5894603    2.0110588   -2.5447450 
H     4.8876113    1.2721526   -1.6777571 
H     0.6756935   -1.2637721   -0.2791294 
H    -0.9997977    0.0190120    1.7968771 
H    -1.3790210   -0.1039181   -1.2317955 
H    -0.7839067    1.2575169   -0.3009187 
H    -2.9686025    1.7821103   -0.8625106 
H    -2.4211696    2.2506112    1.5340825 
H    -4.1539621    2.0500346    1.2497483 
H    -3.2331428    0.7483931    1.9947161 
H    -4.9609545    0.4334794   -0.5892204 
H    -3.7769264   -0.4851234   -1.5225635 
H    -4.0675749   -0.8642661    0.1815982 
H    -2.1470494   -3.3774461    0.1286274 
C     1.1998756    3.2333091    1.5832668 
O     2.3342476    3.3467314    1.7847858 
O     0.0620031    3.1747961    1.3912624 
