32
Energy = -837.7308045606
N     3.7524536    0.5343853    0.9576908 
C     2.8068090    0.6155289   -0.1340840 
C     3.4590331    0.1243344   -1.4206754 
C     1.5460775   -0.2116243    0.1169997 
O     1.5813596   -1.2431489    0.7683920 
N     0.4167948    0.2564686   -0.4477050 
C    -0.8244369   -0.4731363   -0.4107850 
C    -1.5622718   -0.2755159    0.9358295 
C    -2.0666101    1.1484084    1.1029415 
C    -2.6630921   -1.2981215    1.1637300 
C    -1.6356158   -0.0109466   -1.5967102 
O    -1.3869885    0.9703634   -2.2479512 
O    -2.6805485   -0.8022764   -1.8501731 
H     3.8874104   -0.4445413    1.1877802 
H     3.3596109    0.9566315    1.7897442 
H     2.5207577    1.6647564   -0.2609343 
H     3.7443520   -0.9246597   -1.3159711 
H     4.3578427    0.7076675   -1.6179982 
H     2.7833946    0.2100353   -2.2733163 
H     0.4380597    1.0744777   -1.0357841 
H    -0.6159668   -1.5405528   -0.5218268 
H    -0.7781375   -0.4576217    1.6761738 
H    -2.8870764    1.3639939    0.4126785 
H    -2.4430957    1.3010446    2.1155419 
H    -1.2762657    1.8801298    0.9266540 
H    -3.0379792   -1.2136056    2.1854511 
H    -3.5040761   -1.1457410    0.4866068 
H    -2.2958016   -2.3158190    1.0218783 
H    -3.1464301   -0.4191439   -2.6044471 
C     0.7656233   -3.7984873    1.5090967 
O     1.5481083   -3.8110046    2.3584198 
O    -0.0349379   -3.8326288    0.6722101 
