44
Energy = -1290.086389834
N    -1.3206362    0.4431691    2.0231879 
C    -1.6757986   -0.4355772    0.9354857 
C    -1.7722455    0.3532756   -0.3743478 
C    -2.7802197    1.4413565   -0.3273888 
C    -2.5962713    2.7760232   -0.5588766 
N    -3.8321786    3.3493497   -0.3993415 
C    -4.6965752    2.3563111   -0.0817150 
N    -4.0969459    1.1966120   -0.0327515 
C    -0.7567723   -1.6257133    0.6559894 
O    -1.0279660   -2.4502228   -0.1974593 
N     0.3836028   -1.6740082    1.3880743 
C     1.4565326   -2.5384286    1.0136349 
C     2.6764908   -1.7512217    0.4728578 
C     2.2665044   -0.6662503   -0.4778214 
C     2.3690249    0.6714331   -0.1090977 
C     1.9421774    1.6904950   -0.9438549 
C     1.3906885    1.3786046   -2.1788990 
O     0.9584387    2.4039795   -2.9550733 
C     1.2857591    0.0482628   -2.5680184 
C     1.7181192   -0.9582004   -1.7219672 
C     1.9171164   -3.3813461    2.1774163 
O     1.7935472   -3.0937734    3.3384350 
O     2.5541625   -4.4844066    1.7670018 
H    -1.2741161   -0.0174045    2.9190492 
H    -0.4718057    0.9641757    1.8539716 
H    -2.6660822   -0.8523160    1.1385593 
H    -2.0135353   -0.3593170   -1.1648429 
H    -0.7905079    0.7743782   -0.6092828 
H    -1.7208084    3.3472328   -0.8180896 
H    -4.0525066    4.3232633   -0.4959638 
H    -5.7450148    2.5358751    0.1000185 
H     0.5644675   -0.9303160    2.0401522 
H     1.0654858   -3.1921358    0.2324138 
H     3.2094170   -1.3020182    1.3151172 
H     3.3595104   -2.4612749    0.0015436 
H     2.7879270    0.9238478    0.8591370 
H     2.0231914    2.7289074   -0.6486959 
H     0.5685346    2.0519809   -3.7574917 
H     0.8463881   -0.2026067   -3.5279807 
H     1.6005010   -1.9901603   -2.0313492 
H     2.8657048   -4.9429482    2.5576067 
C     2.0121153   -0.5916239    4.7137176 
O     1.7723480   -0.0129482    3.7363971 
O     2.2576914   -1.1299575    5.7028317 
