36
Energy = -1002.493969702
N     0.4246350    0.0075603    3.7467597 
C     0.1698522    0.1404979    2.3243371 
C    -0.6210629    1.4289462    2.0712887 
C    -1.2272609    1.5305268    0.6784562 
C    -2.4227159    0.5958712    0.5021444 
N    -2.7289749    0.2540623   -0.8676288 
C    -1.9771245   -0.6862540   -1.5151702 
N    -1.0499539   -1.3265383   -0.9032314 
N    -2.3133345   -0.8341623   -2.8489144 
C     1.4683854    0.1792831    1.5185100 
O     2.4623925    0.7426326    1.9522520 
N     1.4355712   -0.4262006    0.3156443 
C     2.5725227   -0.3390281   -0.5444246 
C     2.5707004   -1.3965712   -1.6062070 
O     1.7322697   -2.2479834   -1.7577486 
O     3.6291864   -1.2699881   -2.4126824 
H     0.8105088   -0.9088043    3.9382591 
H     1.1585071    0.6650813    3.9913151 
H    -0.4227231   -0.7174717    1.9971736 
H    -1.4067906    1.4715562    2.8310911 
H     0.0432492    2.2772391    2.2599651 
H    -1.5379336    2.5613574    0.4851961 
H    -0.4766842    1.2871881   -0.0764379 
H    -2.2388113   -0.3454927    1.0188984 
H    -3.3159352    1.0380438    0.9495298 
H    -3.1029995    0.9848349   -1.4484539 
H    -0.6532298   -2.0617957   -1.4756628 
H    -3.2944991   -0.7513331   -3.0603056 
H    -1.8758446   -1.6174317   -3.3048200 
H     0.5495422   -0.7978572   -0.0493447 
H     2.6491904    0.6312286   -1.0527083 
H     3.4898850   -0.4246822    0.0441837 
H     3.5561357   -1.9511374   -3.0945947 
C     1.0431376   -2.9739247   -4.3528402 
O    -0.0811492   -3.0312337   -4.0911080 
O     2.1580926   -2.9231563   -4.6600324 
