39
Energy = -1194.800522070
N    -1.9363154   -2.3440957   -0.8043882 
C    -1.8306788   -0.9700259   -1.2664938 
C    -2.9461194   -0.0253477   -0.8280207 
C    -3.0087833    0.1736353    0.6944653 
C    -3.1523033    1.6248315    1.1238250 
O    -4.0819826    2.0088694    1.8049155 
N    -2.1550705    2.4324604    0.7015517 
C    -0.4787447   -0.3740754   -0.8814360 
O    -0.2711230    0.8365683   -0.9249762 
N     0.4527643   -1.2521098   -0.5082915 
C     1.7883033   -0.8344444   -0.1837694 
C     1.8604604   -0.1076753    1.1772353 
C     2.9297081    0.9844524    1.2374167 
C     2.5880333    2.0721199    0.2603551 
O     2.9752928    2.1116632   -0.8804038 
O     1.7489027    2.9734152    0.7774701 
C     2.6675416   -2.0591303   -0.1991236 
O     2.2740240   -3.1849271   -0.3394137 
O     3.9547419   -1.7499081   -0.0120074 
H    -2.6172152   -2.8549861   -1.3474192 
H    -2.2364747   -2.3775106    0.1620325 
H    -1.8154429   -0.9980577   -2.3618945 
H    -3.8970759   -0.4169540   -1.1939416 
H    -2.7916182    0.9329897   -1.3240856 
H    -2.0928801   -0.2061653    1.1634447 
H    -3.8439599   -0.3621637    1.1408570 
H    -1.4102819    2.0875207    0.1113757 
H    -2.2018304    3.4068273    0.9377764 
H     0.2209856   -2.2369534   -0.5370211 
H     2.1489045   -0.1488924   -0.9578562 
H     0.8851270    0.3464041    1.3511176 
H     2.0288789   -0.8294891    1.9793069 
H     2.9622709    1.3958033    2.2462821 
H     3.9080920    0.5840292    0.9785371 
H     1.4572803    3.5433434    0.0506267 
H     4.4493982   -2.5789624   -0.0168809 
C     0.7300425    2.8789342   -2.5970869 
O     0.9783638    2.1208433   -3.4286084 
O     0.4628472    3.6769150   -1.7967792 
