41
Energy = -955.5759539373
N    -2.1865202   -0.4471580   -2.1066900 
C    -1.5196451    0.0855617   -0.9380896 
C    -2.3994411   -0.0552185    0.3229464 
C    -2.7023591   -1.5147066    0.6275841 
C    -3.6919097    0.7439768    0.1904415 
C    -3.5016885    2.2441489    0.0485000 
C    -0.1682996   -0.5865334   -0.6965781 
O     0.1210533   -1.6562996   -1.2004156 
N     0.6625737    0.0876509    0.1330070 
C     1.9118914   -0.4562857    0.5937787 
C     3.1174276    0.3743114    0.1139802 
C     3.1743981    0.3676580   -1.4048583 
C     4.4248495   -0.1244628    0.7105995 
C     1.8772452   -0.5076904    2.1058561 
O     1.4585718    0.3798493    2.8042861 
O     2.3770321   -1.6414216    2.6020278 
H    -1.8222659   -0.0096851   -2.9418114 
H    -1.9451604   -1.4292545   -2.1867074 
H    -1.3372213    1.1524487   -1.0947048 
H    -1.8294421    0.3621228    1.1623033 
H    -3.2899686   -1.9586197   -0.1789010 
H    -3.2855576   -1.5976811    1.5464680 
H    -1.7945042   -2.1086804    0.7475483 
H    -4.3007553    0.5405061    1.0770210 
H    -4.2458042    0.3560473   -0.6681843 
H    -3.0249976    2.5078571   -0.8977812 
H    -2.8827394    2.6468947    0.8547918 
H    -4.4616141    2.7627681    0.0772201 
H     0.3504341    0.9502369    0.5498643 
H     1.9858830   -1.4696896    0.1970422 
H     2.9464512    1.4014939    0.4578717 
H     3.9811434    1.0128698   -1.7569741 
H     2.2411155    0.7204720   -1.8434703 
H     3.3590850   -0.6419019   -1.7794508 
H     4.4466027   -0.0375310    1.7982074 
H     4.5952980   -1.1731983    0.4549732 
H     5.2612773    0.4552075    0.3173686 
H     2.3378494   -1.5722798    3.5651292 
C     0.1720363    2.9265299    2.7668354 
O    -0.0372323    2.8113501    1.6312064 
O     0.3619477    3.0769533    3.8939698 
