27
Energy = -834.3419595047
N    -2.8182844   -1.5307577   -0.4610501 
C    -2.8379377   -0.4895172    0.5334272 
C    -1.6168936    0.4000374    0.7340720 
O    -1.6099512    1.2566127    1.5975141 
N    -0.5805123    0.1737605   -0.1040496 
C     0.6941511    0.8280145    0.0347271 
C     1.8176128   -0.1981673    0.1980077 
O     1.7926898   -1.1191164   -0.8748667 
C     1.6865920   -0.9700924    1.4877065 
C     0.9335815    1.6931439   -1.1897766 
O     1.6546627    1.3985106   -2.1115957 
O     0.2317857    2.8246401   -1.1570708 
H    -2.1368684   -2.2528127   -0.2825935 
H    -2.7205409   -1.1896657   -1.4050330 
H    -3.0510952   -0.9241269    1.5128691 
H    -3.6697236    0.1901813    0.3325564 
H    -0.6123207   -0.6313020   -0.7085285 
H     0.6300552    1.4758450    0.9103910 
H     2.7669518    0.3525462    0.1999971 
H     1.9950050   -0.6098558   -1.6682908 
H     2.5050216   -1.6841694    1.5731723 
H     0.7471953   -1.5246557    1.5114282 
H     1.7122763   -0.2957698    2.3444803 
H     0.4039864    3.2945401   -1.9832939 
C    -0.3046560    3.0891496    3.2919892 
O    -1.3143484    3.5614255    3.5908146 
O     0.7334030    2.6478686    3.0229388 
