27
Energy = -797.2347397746
N    -1.8324143   -1.2899376    0.7493389 
C    -0.9304826   -0.6796067   -0.2153523 
C    -1.5697482    0.6690555   -0.6395942 
C    -2.5527783    0.9612468    0.4864430 
C    -3.0164630   -0.4422675    0.8570461 
C     0.4378649   -0.4656092    0.4132446 
O     0.6229680   -0.4860532    1.6175937 
N     1.4375112   -0.2272159   -0.4605861 
C     2.7694746    0.0206104   -0.0065099 
C     3.6952819    0.1544411   -1.1779507 
O     3.3673870    0.0734899   -2.3328223 
O     4.9507908    0.3815452   -0.7883624 
H    -1.3417278   -1.3024862    1.6371561 
H    -0.7986437   -1.3171478   -1.0962928 
H    -2.1015840    0.5348658   -1.5837030 
H    -0.8277152    1.4536933   -0.7914873 
H    -2.0352447    1.4165977    1.3345482 
H    -3.3621619    1.6264637    0.1812990 
H    -3.7824369   -0.7824822    0.1506521 
H    -3.4425696   -0.5151369    1.8583633 
H     1.2734410   -0.2452229   -1.4548851 
H     3.1311000   -0.7856100    0.6397365 
H     2.8372760    0.9328533    0.5961667 
H     5.4895540    0.4569237   -1.5858587 
C     1.3660574   -0.3175000   -4.3980769 
O     0.5557006   -0.3172257   -3.5683777 
O     2.1506327   -0.3211865   -5.2435818 
