37
Energy = -1098.494322019
N    -1.9505800    0.2287920    1.9612185 
C    -1.2393767   -0.0339027    0.7291617 
C    -1.9676413    0.6328850   -0.4536623 
C    -3.2195140   -0.0746141   -0.8199654 
C    -4.4876226    0.1063159   -0.3445214 
N    -5.2559417   -0.8346759   -0.9783409 
C    -4.4415002   -1.5397734   -1.7973276 
N    -3.2089211   -1.1089933   -1.7244792 
C     0.1888927    0.5000844    0.7532116 
O     0.5032207    1.4648864    1.4319883 
N     1.0521586   -0.1296124   -0.0678222 
C     2.3712691    0.3816046   -0.2988757 
C     3.3978465   -0.2288430    0.6674825 
O     3.6267333   -1.5494642    0.2113994 
C     4.6802676    0.5637374    0.8077845 
C     2.7202749    0.1309546   -1.7513265 
O     2.0616548   -0.5279192   -2.5075936 
O     3.8490990    0.7474246   -2.1197346 
H    -1.6912801   -0.4494952    2.6649843 
H    -1.6377893    1.1295039    2.3105832 
H    -1.2186409   -1.1104245    0.5453685 
H    -1.3135232    0.6495607   -1.3281338 
H    -2.1711799    1.6699256   -0.1776380 
H    -4.8881190    0.7889307    0.3841196 
H    -6.2430930   -0.9708612   -0.8606225 
H    -4.7967518   -2.3430409   -2.4236369 
H     0.7456583   -0.9088715   -0.6301679 
H     2.3523087    1.4598913   -0.1205929 
H     2.8851712   -0.2450872    1.6369068 
H     4.2013351   -1.9965989    0.8335487 
H     5.2250083    0.6108625   -0.1333687 
H     4.4664396    1.5800489    1.1442805 
H     5.3217037    0.0963004    1.5589328 
H     4.0001717    0.5160036   -3.0448052 
C    -0.7303357   -2.3052231   -2.7186315 
O    -0.3908135   -2.4604061   -1.6205829 
O    -1.0297730   -2.1860281   -3.8263892 
