40
Energy = -1191.916586885
N     2.3245689   -0.9713841   -2.3277893 
C     1.8355198   -0.7527691   -0.9829565 
C     2.6306029    0.3535636   -0.2933408 
C     4.0752132   -0.0434162   -0.0405977 
C     4.7139640    0.8530558    0.9955622 
O     4.1834532    1.0825407    2.0662276 
N     5.9211201    1.3683736    0.6677388 
C     0.3547046   -0.3770950   -0.9431394 
O    -0.2161603    0.1069394   -1.9059264 
N    -0.2500466   -0.5764607    0.2452615 
C    -1.5932634   -0.1336684    0.4971709 
C    -2.6204156   -1.2023305    0.0617943 
C    -4.0410119   -0.7824901    0.1659956 
C    -4.7849063   -0.0760709   -0.7397750 
N    -6.0154313    0.0776645   -0.1601927 
C    -5.9728105   -0.5327445    1.0481419 
N    -4.7986664   -1.0593391    1.2757048 
C    -1.7075758    0.1718272    1.9709287 
O    -1.0119812   -0.3285556    2.8166352 
O    -2.6705252    1.0504697    2.2371375 
H     1.9839278   -1.8573224   -2.6783534 
H     1.9051939   -0.2666317   -2.9264566 
H     1.9738651   -1.6728243   -0.4058850 
H     2.1703506    0.6017401    0.6626647 
H     2.5869351    1.2552050   -0.9124034 
H     4.0979146   -1.0526849    0.3826038 
H     4.6390270   -0.0733886   -0.9733408 
H     6.3476626    1.1899732   -0.2207553 
H     6.3933128    1.9533814    1.3340472 
H     0.2633443   -0.9579241    1.0257900 
H    -1.7793534    0.7747863   -0.0778624 
H    -2.4642521   -2.1005051    0.6622197 
H    -2.3701187   -1.4393624   -0.9732227 
H    -4.5507050    0.3163289   -1.7148026 
H    -6.8070795    0.5427499   -0.5655129 
H    -6.8225377   -0.5668547    1.7120040 
H    -2.7345380    1.1200075    3.1981641 
C     2.0542015   -0.5556351    3.4052981 
O     2.0483811   -1.3088348    2.5219498 
O     2.0489595    0.1706247    4.3000729 
