38
Energy = -916.2852440077
N     2.4394815    1.4152274    0.6135195 
C     2.2995912    0.1637277   -0.1081526 
C     2.9359422   -1.0595014    0.5504926 
C     4.4163858   -0.8706458    0.8916209 
C     5.2047290   -0.4458166   -0.3102297 
O     5.3906752    0.6965682   -0.6444385 
O     5.6597244   -1.4854309   -1.0245000 
C     0.8395583   -0.1469136   -0.4366323 
O     0.4927688   -1.2439875   -0.8429918 
N    -0.0021834    0.8850170   -0.2680817 
C    -1.3984915    0.7747838   -0.5878488 
C    -2.1767516    0.1308270    0.5720791 
C    -3.6464025   -0.1961894    0.3305696 
C    -4.2346668   -0.8042130    1.5964771 
C    -3.8380188   -1.1327748   -0.8540955 
C    -1.9156042    2.1592916   -0.8859785 
O    -1.4409286    3.1744033   -0.4527214 
O    -2.9968064    2.1408522   -1.6762265 
H     2.3139954    1.2830409    1.6090485 
H     3.3603313    1.8049904    0.4637631 
H     2.7709811    0.3147188   -1.0854785 
H     2.4003633   -1.2875361    1.4773810 
H     2.7977039   -1.9188150   -0.1055195 
H     4.5358400   -0.0899029    1.6428968 
H     4.8197519   -1.8025889    1.2873993 
H     6.1101555   -1.1199402   -1.7964439 
H     0.3823170    1.7664022    0.0436133 
H    -1.5028022    0.1493121   -1.4759798 
H    -1.6423467   -0.7960598    0.8000852 
H    -2.0772972    0.7830870    1.4454490 
H    -4.1859226    0.7334372    0.1215795 
H    -5.2988622   -1.0144827    1.4727198 
H    -4.1203345   -0.1352392    2.4524375 
H    -3.7356764   -1.7464872    1.8400757 
H    -4.8859514   -1.4248722   -0.9478690 
H    -3.5430716   -0.6689181   -1.7960864 
H    -3.2455133   -2.0428849   -0.7264137 
H    -3.2826636    3.0574134   -1.7798194 
