33
Energy = -1062.087590281
N    -3.1115545   -1.6954943   -0.1825212 
C    -2.9686952   -0.2552933   -0.2827295 
C    -4.0573802    0.4117912    0.5520856 
O    -4.0230549    0.0005487    1.8927952 
C    -1.6007270    0.2142562    0.1951021 
O    -1.3254775    0.3211455    1.3871030 
N    -0.6947935    0.4575753   -0.7669354 
C     0.6609954    0.8411135   -0.4697232 
C     1.5097333   -0.3833004   -0.0988643 
C     2.8766866   -0.0580040    0.4657176 
C     3.5636712   -1.2827414    0.9941657 
O     3.0993476   -2.3895344    1.0310225 
O     4.7989856   -1.0000476    1.4406904 
C     1.1938053    1.5499774   -1.6920946 
O     0.7005816    1.4738922   -2.7858045 
O     2.2952131    2.2595778   -1.4342219 
H    -2.3083827   -2.1837515   -0.5547332 
H    -3.2131219   -1.9478138    0.7932149 
H    -3.1071468    0.0451799   -1.3276852 
H    -5.0279796    0.1173556    0.1490513 
H    -3.9650587    1.5026386    0.4601460 
H    -3.1214767    0.1656620    2.2016962 
H    -0.9519460    0.4260346   -1.7408003 
H     0.6583964    1.5340570    0.3758086 
H     1.5965727   -1.0388326   -0.9686320 
H     0.9407331   -0.9324793    0.6512774 
H     2.7993722    0.6527358    1.2929190 
H     3.5369385    0.4093835   -0.2667132 
H     5.1694204   -1.8267536    1.7734077 
H     2.5831771    2.6522974   -2.2684957 
C     0.1130800    0.4352150    3.7729373 
O    -0.8612317    0.1896664    4.3417700 
O     1.1110046    0.6847594    3.2397631 
