24
Energy = -608.7610092659
N    -1.8926328   -1.2551269    0.9654225 
C    -1.0333539   -0.6824194   -0.0583037 
C    -1.6846539    0.6567009   -0.4984883 
C    -2.6318581    0.9824400    0.6492128 
C    -3.0766945   -0.4091646    1.0824967 
C     0.3619556   -0.4537691    0.5017185 
O     0.5910210   -0.3969676    1.6970134 
N     1.3309227   -0.2892049   -0.4212392 
C     2.6825895   -0.0164344   -0.0445209 
C     3.5269504    0.1082134   -1.2786108 
O     3.1175377   -0.0056789   -2.4027486 
O     4.8027047    0.3640612   -0.9787079 
H    -1.3679626   -1.2257234    1.8332835 
H    -0.9452763   -1.3522157   -0.9216866 
H    -2.2474737    0.4999030   -1.4211180 
H    -0.9466224    1.4360074   -0.6926186 
H    -2.0889232    1.4683054    1.4636344 
H    -3.4536532    1.6339537    0.3478784 
H    -3.8635749   -0.7770819    0.4140782 
H    -3.4688826   -0.4489640    2.0993086 
H     1.1409299   -0.3669598   -1.4074773 
H     3.0956379   -0.8067561    0.5903693 
H     2.7665893    0.9071117    0.5371468 
H     5.2848234    0.4299699   -1.8123432 
