44
Energy = -1307.118461120
N    -0.6725423    1.1430263    1.9423606 
C    -1.8252622    0.4666149    1.3860995 
C    -2.3843395    1.1420333    0.1671017 
C    -2.1583602    2.3880044   -0.3573402 
N    -2.8308044    2.5400225   -1.5409953 
C    -3.4668908    1.4062718   -1.7243533 
N    -3.2373197    0.5383283   -0.7146030 
C    -1.5107861   -0.9954000    1.0440052 
O    -2.3485919   -1.7099875    0.5020304 
N    -0.2842915   -1.4007772    1.3678713 
C     0.2744241   -2.5986741    0.8227775 
C     0.7532014   -2.4403463   -0.6749357 
C     0.6283776   -1.0532289   -1.1933636 
C     1.4031026    0.0922203   -0.8065334 
C     2.4591216    0.2926825    0.0875329 
C     2.9383279    1.5736256    0.2780644 
C     2.3864058    2.6643039   -0.4086589 
C     1.3472893    2.4962868   -1.3043652 
C     0.8684700    1.2050200   -1.4967584 
N    -0.1514269    0.7480040   -2.2871602 
C    -0.3100941   -0.5951613   -2.0758920 
C     1.4334398   -3.0253019    1.6818493 
O     2.0094041   -2.3249714    2.4693814 
O     1.7888079   -4.2906622    1.4273008 
H    -0.9435660    1.8999140    2.5510171 
H    -0.0838135    1.5224907    1.2096286 
H    -2.5963798    0.4136751    2.1634931 
H    -1.5356510    3.1727163    0.0409583 
H    -4.1063071    1.1674869   -2.5600722 
H    -3.4961026   -0.4355929   -0.6433296 
H     0.3172993   -0.7230516    1.8191398 
H    -0.4848287   -3.3805893    0.8483264 
H     0.1610365   -3.1182146   -1.2881091 
H     1.7874476   -2.7845352   -0.7508481 
H     2.8823340   -0.5353755    0.6435281 
H     3.7507003    1.7422381    0.9739153 
H     2.7816920    3.6573609   -0.2336829 
H     0.9155009    3.3386640   -1.8307961 
H    -0.8426345    1.3406448   -2.7157380 
H    -1.1002853   -1.1348794   -2.5736401 
H     2.5625080   -4.4829202    1.9714797 
C    -3.0014264   -3.3967299   -1.5438371 
O    -3.6305779   -2.5330521   -1.9912271 
O    -2.3804750   -4.2847882   -1.1430414 
