42
Energy = -1081.034780552
N     3.3080811    0.9758876    1.5166161 
C     2.7166975    0.6771437    0.2339847 
C     3.6948040   -0.1341527   -0.6180913 
C     5.0042800    0.6018014   -0.8579791 
C     5.9099953    0.7431221    0.3333522 
O     6.5261707    1.7320869    0.6199106 
O     6.0524172   -0.4157981    1.0056514 
C     1.4144188   -0.1135966    0.3520003 
O     1.2112182   -0.8711323    1.2824224 
N     0.5317853    0.0720890   -0.6567915 
C    -0.6196194   -0.7732659   -0.8329980 
C    -1.9305792   -0.1191585   -0.3836186 
C    -1.9281488    0.2266374    1.0935589 
C    -3.2537898    0.7997427    1.5728457 
N    -4.3578205   -0.1258351    1.4685762 
C    -5.2792925   -0.0979536    0.4452700 
N    -5.2821187    0.6328047   -0.6003567 
N    -6.3138088   -0.9993946    0.6520375 
C    -0.7095451   -1.1399846   -2.2954840 
O    -0.0938817   -0.5943901   -3.1730466 
O    -1.5831709   -2.1249233   -2.5143060 
H     2.7879682    1.7011896    1.9911569 
H     3.2496635    0.1474178    2.0987682 
H     2.5156987    1.6232277   -0.2803785 
H     3.2322254   -0.3628249   -1.5816593 
H     3.8870293   -1.0886727   -0.1223653 
H     4.8317376    1.6062914   -1.2448689 
H     5.5836924    0.0592988   -1.6121856 
H     6.6660491   -0.2324110    1.7266194 
H     0.8185665    0.5931964   -1.4708456 
H    -0.4615965   -1.6818806   -0.2457422 
H    -2.0945605    0.7836920   -0.9820213 
H    -2.7527343   -0.8010418   -0.6074348 
H    -1.6903966   -0.6664718    1.6774334 
H    -1.1371926    0.9515009    1.3048718 
H    -3.4897133    1.7196246    1.0263273 
H    -3.1568717    1.0914481    2.6206807 
H    -4.7138077   -0.4850067    2.3366709 
H    -4.5414589    1.3228666   -0.5832058 
H    -6.0250150   -1.9026204    0.9931379 
H    -6.9036150   -1.0645137   -0.1617944 
H    -1.6233612   -2.2660403   -3.4685190 
