27
Energy = -834.3275180975
N     2.7398032   -0.2654971    0.8265362 
C     2.2697285    0.9923313    0.2731616 
C     2.9599219    1.4163140   -1.0189495 
O     4.3422824    1.6145462   -0.8415255 
C     0.7577371    0.9996723    0.0672519 
O     0.2023637    1.8990017   -0.5407347 
N     0.1070556   -0.0465212    0.6055405 
C    -1.3252418   -0.1290795    0.6090535 
C    -1.9018115   -0.3398852   -0.7917426 
C    -3.3359957    0.0906986   -0.9012590 
O    -3.8640364    0.9344071   -0.2324171 
O    -3.9690095   -0.5546729   -1.8941890 
C    -1.7114098   -1.2434832    1.5549995 
O    -0.9367926   -1.8561940    2.2390453 
O    -3.0242312   -1.4831773    1.5403637 
H     3.5895818   -0.1522740    1.3577770 
H     2.8948814   -0.9624099    0.1092685 
H     2.4642850    1.7718068    1.0169046 
H     2.5394031    2.3603145   -1.3589374 
H     2.7615084    0.6647558   -1.7977378 
H     4.7446554    0.7725554   -0.6229211 
H     0.6342940   -0.6877945    1.1830492 
H    -1.7643929    0.7999321    0.9932326 
H    -1.3407464    0.3112885   -1.4675992 
H    -1.7836550   -1.3664537   -1.1382234 
H    -4.8602444   -0.1861471   -1.9372304 
H    -3.1900344   -2.1980348    2.1671824 
