44
Energy = -1273.101693324
N     1.3245193    1.9949004    1.0332938 
C     1.0283665    0.6781228    0.5164618 
C     1.8920725   -0.3833931    1.2243862 
C     3.3359494   -0.3116211    0.8318561 
C     3.8444434   -1.1597694   -0.1481051 
C     5.1637451   -1.0880907   -0.5601801 
C     6.0099540   -0.1486229    0.0132383 
O     7.2975936   -0.1098963   -0.4155355 
C     5.5225510    0.7054345    0.9949752 
C     4.1992933    0.6214216    1.3955373 
C    -0.4352796    0.2996759    0.7057201 
O    -1.0782397    0.6869628    1.6710559 
N    -0.9687878   -0.5128254   -0.2239310 
C    -2.3086645   -1.0170656   -0.0874194 
C    -3.3623998    0.0413841   -0.4612589 
C    -4.7072159   -0.1638350    0.2219844 
C    -5.6637049    0.9285664   -0.2050663 
O    -6.2286997    0.9032859   -1.2793828 
N    -5.8169944    1.9412908    0.6807761 
C    -2.4187058   -2.2431836   -0.9590592 
O    -1.5992215   -2.5697936   -1.7762653 
O    -3.5469844   -2.9210863   -0.7405067 
H     0.9984532    2.7100882    0.3974842 
H     0.8120062    2.1234155    1.8996895 
H     1.2717870    0.6555945   -0.5498852 
H     1.5016998   -1.3773797    0.9896782 
H     1.7695315   -0.2402618    2.3014771 
H     3.1936728   -1.9017430   -0.5995833 
H     5.5527448   -1.7546823   -1.3191893 
H     7.7664540    0.5788564    0.0588398 
H     6.1807314    1.4405798    1.4477882 
H     3.8252989    1.3029368    2.1484159 
H    -0.4218479   -0.8698746   -0.9914806 
H    -2.4705150   -1.3079136    0.9549765 
H    -3.4928288    0.0793559   -1.5453960 
H    -2.9477664    1.0003814   -0.1481828 
H    -4.5658243   -0.1680315    1.3056302 
H    -5.1493517   -1.1145538   -0.0728068 
H    -5.2692372    1.9967967    1.5199407 
H    -6.3773626    2.7288900    0.4074764 
H    -3.5651592   -3.6573627   -1.3651933 
C    -2.3936564    2.6827965    3.0428912 
O    -1.3926022    3.2135795    3.2639588 
O    -3.4240980    2.1910677    2.8455686 
