30
Energy = -927.7638205818
N    -0.1539994   -1.4780452   -0.6159492 
C     0.4051044   -0.6942129    0.4601423 
C     1.5259339    0.1932957   -0.0760008 
C     2.6650143   -0.6082658   -0.6854959 
C     3.5013683    0.2330790   -1.6195667 
O     3.0053786    0.9396841   -2.4777421 
N     4.8413926    0.1382224   -1.4629893 
C    -0.5437638    0.1942890    1.2663013 
O    -0.1967045    0.6989630    2.3190337 
N    -1.7657995    0.3953027    0.7341327 
C    -2.7522386    1.1791469    1.4061518 
C    -4.1043080    0.8977520    0.8195188 
O    -4.3124122    0.1468526   -0.0955168 
O    -5.0631153    1.5971505    1.4330481 
H    -0.4251618   -0.9206128   -1.4142502 
H    -0.9108341   -2.0804594   -0.3310267 
H     0.8274306   -1.3806780    1.2022499 
H     1.8873764    0.8246470    0.7364931 
H     1.1154014    0.8522862   -0.8450354 
H     3.2761386   -1.0700496    0.0941711 
H     2.2416936   -1.4177218   -1.2875027 
H     5.2531568   -0.4268287   -0.7458766 
H     5.4358869    0.6611009   -2.0812857 
H    -2.0491434   -0.0886341   -0.1018150 
H    -2.5583562    2.2548581    1.3274349 
H    -2.7617308    0.9566487    2.4768806 
H    -5.8976354    1.3765460    1.0011694 
C     0.6813778    0.9152263   -4.0831370 
O    -0.0186790    0.5829098   -3.2201704 
O     1.3310675    1.2453619   -4.9773558 
