36
Energy = -857.1385156014
N    -2.8665311   -1.2273756    0.6904561 
C    -2.1332242   -1.3528834   -0.5592606 
C    -2.5362221   -0.2728262   -1.5760722 
C    -3.9653027   -0.4733485   -2.0596816 
C    -2.3244419    1.1394454   -1.0481464 
C    -0.6282691   -1.2706284   -0.3329508 
O     0.1628616   -1.5593677   -1.2167194 
N    -0.2544198   -0.8470354    0.8853787 
C     1.1287245   -0.6836466    1.2238197 
C     1.7107975    0.6130086    0.6322506 
C     3.2227158    0.6177854    0.5079713 
C     3.7297171    1.9696498    0.0515593 
O     3.2577731    3.0118225    0.4556195 
N     4.7746981    1.9350090   -0.8111274 
C     1.2406931   -0.7020416    2.7281229 
O     0.3199579   -0.5659613    3.4866515 
O     2.5051336   -0.8633230    3.1430231 
H    -3.8198103   -0.9380192    0.5247637 
H    -2.9043153   -2.1093036    1.1821716 
H    -2.2885947   -2.3219143   -1.0517831 
H    -1.8658883   -0.4284058   -2.4257266 
H    -4.1239474   -1.4888485   -2.4290681 
H    -4.6990634   -0.2822232   -1.2708381 
H    -4.1925216    0.2197027   -2.8717269 
H    -2.5908745    1.8718413   -1.8123016 
H    -2.9409630    1.3348199   -0.1684627 
H    -1.2846466    1.3149717   -0.7682258 
H    -0.9751749   -0.6075480    1.5522049 
H     1.6878277   -1.5308772    0.8152694 
H     1.2742197    0.7083979   -0.3630166 
H     1.3847463    1.4770159    1.2141498 
H     3.6912052    0.4196721    1.4754390 
H     3.5470003   -0.1747516   -0.1718399 
H     5.1152803    1.0761927   -1.1981832 
H     5.1509662    2.8057105   -1.1415342 
H     2.4897931   -0.8148163    4.1073142 
