38
Energy = -916.2821140117
N    -1.7965581    1.1698790   -1.2225132 
C    -1.3911213    0.6293709    0.0558430 
C    -1.8213302   -0.8296236    0.2192292 
C    -3.3109074   -1.0841761    0.4483790 
C    -4.1725720   -0.8422613   -0.7830065 
C    -3.5062329   -2.5070431    0.9555970 
C     0.0974147    0.7151072    0.4076303 
O     0.4833378    0.5527170    1.5515702 
N     0.9401686    0.9373901   -0.6249604 
C     2.3410974    1.1892978   -0.4254167 
C     3.2150148   -0.0573923   -0.6202029 
C     2.8546688   -1.1756298    0.3369360 
C     3.1751416   -0.8448276    1.7669279 
O     3.8495406    0.0805875    2.1318204 
O     2.6517173   -1.7423869    2.6115699 
C     2.7582006    2.2684053   -1.3943717 
O     2.0694762    2.6832513   -2.2903610 
O     3.9994245    2.7008736   -1.1668517 
H    -1.4785597    2.1150067   -1.3802256 
H    -1.5315030    0.5840815   -2.0014439 
H    -1.8815605    1.2104652    0.8440439 
H    -1.4823223   -1.3989360   -0.6574190 
H    -1.2714869   -1.2224075    1.0774182 
H    -3.6386446   -0.3963570    1.2376332 
H    -4.0876485    0.1822985   -1.1404052 
H    -3.8678120   -1.5087643   -1.5965776 
H    -5.2218969   -1.0528734   -0.5637967 
H    -4.5601441   -2.7118555    1.1549842 
H    -3.1654034   -3.2319269    0.2101388 
H    -2.9456769   -2.6862578    1.8754910 
H     0.5567777    1.2216026   -1.5122194 
H     2.4918158    1.5515835    0.5953817 
H     3.1005202   -0.4126080   -1.6479050 
H     4.2570836    0.2291571   -0.4763384 
H     1.7995489   -1.4438606    0.2731700 
H     3.4139934   -2.0817159    0.0848063 
H     2.8798409   -1.4505516    3.5024443 
H     4.1965972    3.3669805   -1.8370997 
