50
Energy = -1214.915056144
N     1.3240113    0.6173804   -0.0294459 
C     1.1063276   -0.7536939   -0.4392836 
C     2.1849771   -1.6813831    0.1221038 
C     3.6003382   -1.2567112   -0.2548952 
C     4.2753861   -0.3983993    0.8087283 
N     5.4848425    0.2245077    0.3279758 
C     5.4112402    1.3824897   -0.4246002 
N     4.3670656    1.9597191   -0.8679816 
N     6.6678347    1.9237527   -0.6720106 
C    -0.2583557   -1.3768717   -0.1396564 
O    -0.5368554   -2.4976598   -0.5226706 
N    -1.1284378   -0.6184969    0.5689388 
C    -2.3509104   -1.1843792    1.0793884 
C    -3.3802272   -1.5032105   -0.0045470 
C    -3.6670294   -0.3267854   -0.9241682 
C    -4.2215677    0.9059235   -0.2284192 
C    -4.6148038    2.0059650   -1.2066419 
N    -5.1437789    3.2257480   -0.6244366 
C    -2.0228957   -2.3571568    1.9967752 
O    -1.0151979   -2.4476691    2.6450057 
O    -3.0133621   -3.2490979    2.0742476 
H     1.2612530    0.7505040    0.9704604 
H     0.7203332    1.2750947   -0.4999466 
H     1.1949046   -0.7836728   -1.5303745 
H     1.9637802   -2.6823654   -0.2461242 
H     2.0819303   -1.7386408    1.2131365 
H     3.5787569   -0.6968286   -1.1929024 
H     4.2242282   -2.1357125   -0.4321443 
H     4.5378252   -1.0230739    1.6656590 
H     3.5730812    0.3610119    1.1716394 
H     6.2770620    0.1887359    0.9461460 
H     3.5086395    1.5273059   -0.5381747 
H     7.3684222    1.2451493   -0.9264127 
H     6.6061271    2.6769915   -1.3382027 
H    -0.7705960    0.2141092    0.9996864 
H    -2.7809630   -0.4337699    1.7512934 
H    -3.0190574   -2.3501069   -0.5866309 
H    -4.3003056   -1.8189605    0.4916600 
H    -2.7559446   -0.0585964   -1.4674552 
H    -4.3828685   -0.6589139   -1.6824963 
H    -3.4835906    1.3152013    0.4721418 
H    -5.0970608    0.6304162    0.3728087 
H    -3.7457445    2.2716956   -1.8171399 
H    -5.3602154    1.6141457   -1.9059329 
H    -4.4685616    3.6447850    0.0019831 
H    -5.9688514    3.0284074   -0.0728170 
H    -2.7265414   -3.9269388    2.6990919 
C     1.0272741   -0.7607376    3.7207152 
O     0.5812358    0.1877783    3.2222782 
O     1.5048538   -1.6774315    4.2312244 
