35
Energy = -951.9180372132
N    -0.5014895   -2.3415652   -0.8440316 
C    -0.1000120   -1.0196678   -0.4189586 
C    -0.8894665   -0.5958325    0.8350757 
C    -2.3261044   -0.2862112    0.5439551 
C    -2.7477833    1.0320084    0.3933186 
C    -4.0607142    1.3466517    0.0881084 
C    -4.9890080    0.3272409   -0.0735977 
O    -6.2679068    0.6751523   -0.3695101 
C    -4.5888085   -0.9951935    0.0745677 
C    -3.2709143   -1.2935282    0.3792251 
C     1.3876169   -0.9490455   -0.0869747 
O     2.0021189   -1.9139226    0.3276801 
N     1.9648469    0.2650018   -0.2480180 
C     3.2991158    0.5281757    0.2088923 
C     4.3511639    0.0611531   -0.8184680 
O     5.6493056    0.0010970   -0.3046595 
C     3.4075640    2.0055243    0.4789095 
O     2.5363075    2.8089400    0.2847089 
O     4.6223278    2.3515295    0.9354615 
H     0.0193405   -3.0166593   -0.2929057 
H    -0.2360060   -2.4984468   -1.8070513 
H    -0.3252362   -0.3069580   -1.2179197 
H    -0.4150185    0.2831560    1.2796626 
H    -0.8022015   -1.4057992    1.5644593 
H    -2.0324022    1.8375549    0.5244028 
H    -4.3814631    2.3747016   -0.0216761 
H    -6.7989551   -0.1190242   -0.4500314 
H    -5.3115812   -1.7958861   -0.0489715 
H    -2.9648202   -2.3270587    0.4748657 
H     1.4028188    1.0684947   -0.4803136 
H     3.4953703   -0.0236457    1.1342710 
H     4.0729950   -0.9541836   -1.0983157 
H     4.2841771    0.6939851   -1.7143772 
H     5.8956478    0.8719264    0.0143024 
H     4.6190746    3.3103346    1.0526136 
