32
Energy = -1136.093625575
N    -1.9260223    0.8724392    0.8559920 
C    -1.4223260   -0.4626212    0.5967921 
C    -2.1307331   -1.2158208   -0.5296366 
C    -3.5949708   -1.3831710   -0.2649195 
O    -4.4833142   -1.0063994   -0.9791980 
O    -3.8289062   -2.0110983    0.9037695 
C     0.0812406   -0.4673771    0.3185615 
O     0.6398064   -1.4649344   -0.1122340 
N     0.7032793    0.6809490    0.6036377 
C     2.1245416    0.8622239    0.5032843 
C     2.6893550    0.4934349   -0.8724282 
C     3.2291297   -0.9108068   -0.8956247 
O     3.7833407   -1.4410245    0.0292246 
O     3.1060466   -1.4761538   -2.0988006 
C     2.4177715    2.2955741    0.8822113 
O     1.5909239    3.0972468    1.2217144 
O     3.7246454    2.5682194    0.8230269 
H    -2.7195802    0.8548381    1.4792676 
H    -2.2160116    1.3333065    0.0031983 
H    -1.5320544   -1.0427871    1.5175922 
H    -1.6640598   -2.1966520   -0.6405384 
H    -2.0250007   -0.6814812   -1.4742650 
H    -4.7871379   -2.0865754    0.9894960 
H     0.1425554    1.4368318    0.9774485 
H     2.6498121    0.2350196    1.2361772 
H     3.5372554    1.1411494   -1.1076607 
H     1.9390311    0.6279658   -1.6491117 
H     3.4807808   -2.3630975   -2.0284194 
H     3.8364258    3.4846952    1.1036475 
C     2.0807676   -2.9256077    1.8803277 
O     1.9606380   -2.0095245    2.5797304 
O     2.1964519   -3.8690129    1.2241755 
