33
Energy = -1086.603586691
N     3.2856072   -2.1817290    1.0327018 
C     2.5450693   -0.9481795    0.9644495 
C     3.4773330    0.2078435    0.6128598 
S     4.0652052    0.0424205   -1.1039917 
C     1.3538784   -0.9998841   -0.0048198 
O     1.1822058   -1.9305725   -0.7647322 
N     0.5109781    0.0596607    0.0762710 
C    -0.4766611    0.3164191   -0.9385944 
C    -1.9217240   -0.0071148   -0.5043390 
C    -2.0485507   -1.4926856   -0.2078162 
C    -2.3592218    0.8646521    0.6697299 
C    -3.8231614    0.7033814    1.0427646 
C    -0.3479529    1.7638538   -1.3512482 
O     0.3168352    2.5856012   -0.7766432 
O    -1.0855757    2.0475894   -2.4288677 
H     3.8377901   -2.2796520    0.1877603 
H     2.6408721   -2.9620841    1.0240778 
H     2.1377421   -0.7252386    1.9588666 
H     4.3310519    0.1722342    1.2878783 
H     2.9720608    1.1668168    0.7258488 
H     5.0954534    0.8905824   -0.9825950 
H     0.8139463    0.8728252    0.5890079 
H    -0.2355050   -0.3104595   -1.8016269 
H    -2.5544077    0.2332663   -1.3653099 
H    -1.6901080   -2.0942890   -1.0433106 
H    -1.4558745   -1.7639989    0.6684797 
H    -3.0858401   -1.7639221   -0.0113758 
H    -1.7302749    0.6313871    1.5352860 
H    -2.1716297    1.9171519    0.4321859 
H    -4.0435391   -0.3027675    1.4017795 
H    -4.4706605    0.8995007    0.1844219 
H    -4.1021127    1.4008428    1.8342175 
H    -0.9633291    2.9866480   -2.6161161 
