31
Energy = -1019.929883329
N     1.1991700   -1.7027206   -0.9927747 
C     1.4439450   -1.0284826    0.2673948 
C     2.5978951   -0.0750055    0.2214049 
C     3.6285588    0.0493988   -0.6746894 
N     4.4733065    1.0576433   -0.2988534 
C     3.9660846    1.5362638    0.8089301 
N     2.8387014    0.8810790    1.1691104 
C     0.1815506   -0.3384942    0.7952679 
O     0.2189430    0.3734241    1.7941930 
N    -0.9308423   -0.6008842    0.1117090 
C    -2.2028540   -0.0692750    0.5006357 
C    -2.4888127    1.2860550   -0.1314969 
O    -2.6091288    1.0885345   -1.5217378 
C    -3.2803617   -1.0676907    0.1370364 
O    -3.0949582   -2.0975062   -0.4465657 
O    -4.4840609   -0.6577571    0.5535942 
H     1.4021475   -1.0850684   -1.7682254 
H     1.7827717   -2.5196939   -1.0910602 
H     1.6451803   -1.8006698    1.0212745 
H     3.8124655   -0.5351807   -1.5624717 
H     4.3676570    2.3541401    1.3867870 
H     2.2031787    1.0851496    1.9258285 
H    -0.8628033   -1.2591601   -0.6536372 
H    -2.2067423    0.0707775    1.5856762 
H    -3.4078671    1.6918299    0.3031568 
H    -1.6590466    1.9538332    0.1180638 
H    -2.7241404    1.9364578   -1.9502153 
H    -5.1217100   -1.3237722    0.2689749 
C    -0.0459917    2.8800837    2.9232115 
O     1.0833044    2.8399659    3.1738185 
O    -1.1747720    2.9637072    2.6876100 
