37
Energy = -1065.224604920
N    -0.9969304   -3.0261971    0.3264868 
C    -0.0336486   -2.2303536   -0.3939544 
C    -0.7500402   -1.3143908   -1.4010460 
C    -1.6462636   -0.2935192   -0.7618822 
C    -2.9684988   -0.6003514   -0.4421658 
C    -3.7973594    0.3187611    0.1739608 
C    -3.3137431    1.5833411    0.4852136 
O    -4.1593185    2.4527779    1.0929193 
C    -2.0033107    1.9139825    0.1649495 
C    -1.1842981    0.9815030   -0.4532455 
C     0.9037154   -1.4536089    0.5399739 
O     0.8274406   -1.5465543    1.7527167 
N     1.8404114   -0.6857053   -0.0568805 
C     2.6927062    0.1813009    0.7125692 
C     3.9483126   -0.5217912    1.2202772 
C     3.0269583    1.3753306   -0.1457826 
O     2.6880331    1.5116626   -1.2929907 
O     3.7572670    2.2796212    0.5105622 
H    -0.5111151   -3.6193749    0.9872385 
H    -1.5664413   -2.4131146    0.8999714 
H     0.6017449   -2.9094230   -0.9749353 
H    -1.3358054   -1.9672346   -2.0503522 
H    -0.0178635   -0.8121385   -2.0378287 
H    -3.3542971   -1.5844592   -0.6825358 
H    -4.8217151    0.0720170    0.4215343 
H    -3.7063732    3.2850988    1.2395982 
H    -1.6206576    2.9031107    0.3957914 
H    -0.1688479    1.2618265   -0.7093770 
H     1.8089956   -0.5141306   -1.0483778 
H     2.1263687    0.5434597    1.5767820 
H     4.5526361    0.1534784    1.8245315 
H     4.5497171   -0.8876777    0.3864208 
H     3.6447295   -1.3686830    1.8337928 
H     3.9345054    3.0023660   -0.1041563 
C    -0.9259450    0.3359821    2.9536285 
O    -1.7695704   -0.4523898    2.9835097 
O    -0.1033235    1.1517553    2.9494268 
