24
Energy = -968.7604687552
N    -2.0318022   -0.0543103    1.6781866 
C    -2.2586224   -0.1351082    0.2407826 
C    -3.2105967    0.9096643   -0.3178918 
C    -0.9369436   -0.1112594   -0.5309439 
O    -0.8958076    0.0698866   -1.7343676 
N     0.1540944   -0.3437193    0.2248823 
C     1.4721511   -0.3795318   -0.3474420 
C     2.0806766    1.0241850   -0.3791742 
S     3.7566087    1.1052353   -1.0459986 
C     2.3254765   -1.3020649    0.4966937 
O     2.3991583   -1.2222535    1.6933053 
O     2.9788327   -2.2122424   -0.2255589 
H    -2.0031030    0.9122353    1.9781664 
H    -2.7808249   -0.4990333    2.1885241 
H    -2.6688763   -1.1298355    0.0346376 
H    -4.2006887    0.7989427    0.1269837 
H    -2.8441941    1.9153599   -0.0944242 
H    -3.2903199    0.8168413   -1.3998584 
H     0.0178745   -0.4481644    1.2210430 
H     1.3934559   -0.7628752   -1.3646801 
H     1.4130187    1.6751635   -0.9418959 
H     2.1564279    1.4032543    0.6413108 
H     3.4510792    0.6930719   -2.2861456 
H     3.5229247   -2.7237419    0.3874650 
