36
Energy = -765.8855944960
N     3.3318198    1.4994451    0.0971087 
C     2.5309063    0.3571109   -0.2805982 
C     3.2034615   -0.7795372    0.4899470 
C     4.6822890   -0.3443518    0.5627169 
C     4.7019048    1.0585143   -0.0599423 
C     1.0624627    0.6412083   -0.0441859 
O     0.5782853    1.7236229   -0.3247173 
N     0.3262679   -0.3812750    0.4370363 
C    -1.0874846   -0.2440473    0.6676215 
C    -1.8794318   -0.4443846   -0.6354087 
C    -3.3730908   -0.1380435   -0.6028137 
C    -3.6552877    1.2903818   -0.1584391 
C    -3.9610814   -0.3967978   -1.9833124 
C    -1.4702220   -1.2584326    1.7144723 
O    -0.8263247   -2.2400827    1.9778864 
O    -2.6269114   -0.9652294    2.3168199 
H     3.0851362    2.3289576   -0.4232515 
H     2.6081780    0.1352797   -1.3638051 
H     2.7835341   -0.8499014    1.4948984 
H     3.0736636   -1.7447868   -0.0007425 
H     5.0179630   -0.3117104    1.5988135 
H     5.3409925   -1.0277667    0.0270168 
H     5.3922555    1.7370273    0.4434616 
H     5.0066336    0.9900588   -1.1174653 
H     0.7533564   -1.2476996    0.7193402 
H    -1.2803595    0.7596778    1.0505127 
H    -1.7148527   -1.4708919   -0.9782697 
H    -1.4025378    0.2166201   -1.3647356 
H    -3.8593172   -0.8182647    0.1035135 
H    -4.7206607    1.5147342   -0.2406581 
H    -3.3655977    1.4635849    0.8789189 
H    -3.1116284    2.0043228   -0.7830992 
H    -5.0396501   -0.2276832   -1.9876782 
H    -3.5162410    0.2731273   -2.7245075 
H    -3.7794854   -1.4232342   -2.3101769 
H    -2.8087452   -1.6795527    2.9407227 
