35
Energy = -877.0007419532
N    -2.5430767   -1.6104317    1.2773047 
C    -1.8641261   -0.9352967    0.1925340 
C    -2.8324403   -0.0307569   -0.6009132 
C    -3.8806992   -0.8785257   -1.3023244 
C    -3.4803707    1.0155346    0.2934584 
C    -0.6789169   -0.1118509    0.6925752 
O    -0.5647436    0.2255719    1.8574934 
N     0.2279483    0.2400267   -0.2477928 
C     1.3037112    1.1428355    0.0532054 
C     2.4767557    0.4636046    0.7701416 
C     3.1248577   -0.6311342   -0.0714051 
C     4.1933142   -1.3522509    0.6959282 
O     4.1319154   -2.4851348    1.0863646 
O     5.2613301   -0.5650440    0.9244723 
C     1.7452383    1.7842237   -1.2395196 
O     1.3375306    1.4803021   -2.3291254 
O     2.6681743    2.7277947   -1.0382290 
H    -2.0669078   -2.4730090    1.5020503 
H    -2.4681780   -1.0307530    2.1064495 
H    -1.4828280   -1.6885961   -0.5048054 
H    -2.2405761    0.4884125   -1.3639949 
H    -4.5769380   -0.2497965   -1.8608347 
H    -4.4459136   -1.4549644   -0.5686377 
H    -3.4225967   -1.5797514   -2.0042478 
H    -2.7410827    1.6360182    0.8039204 
H    -4.0991374    0.5336428    1.0531914 
H    -4.1253032    1.6711729   -0.2941127 
H     0.0565460    0.0539849   -1.2231020 
H     0.9339304    1.9324440    0.7152715 
H     3.2136093    1.2208007    1.0386111 
H     2.0761643    0.0436789    1.6939987 
H     3.5780109   -0.2007043   -0.9691829 
H     2.3853361   -1.3706281   -0.3733591 
H     5.8876788   -1.0906482    1.4371035 
H     2.9118833    3.0795278   -1.9035872 
