41
Energy = -1010.391087799
N     4.1461930    0.2212765    1.3469701 
C     2.8594781    0.4937520    0.7242654 
C     3.1020022    1.5120630   -0.4354147 
C     4.6164357    1.7435704   -0.4187253 
C     5.1502074    0.5239726    0.3326110 
C     2.2650829   -0.7696529    0.1270007 
O     2.9306099   -1.6589273   -0.3609031 
N     0.9053930   -0.8033332    0.1205406 
C     0.2145936   -1.7870459   -0.6545754 
C    -1.2625392   -1.8565733   -0.2668843 
C    -2.0136363   -0.5653440   -0.3205473 
C    -3.2228974   -0.2998520    0.4054422 
C    -3.9939550   -1.0455801    1.3010242 
C    -5.1318530   -0.4776119    1.8365454 
C    -5.5206010    0.8249580    1.4943456 
C    -4.7802061    1.5860504    0.6114285 
C    -3.6340405    1.0104262    0.0740885 
N    -2.7142111    1.5088673   -0.8076531 
C    -1.7454055    0.5661248   -1.0443188 
C     0.4027665   -1.5531111   -2.1480121 
O     0.7922446   -0.5407028   -2.6621926 
O     0.0609319   -2.6423937   -2.8471614 
H     4.2651547    0.8489044    2.1305264 
H     2.1682479    0.8918387    1.4707975 
H     2.7748310    1.0908237   -1.3874222 
H     2.5400260    2.4330105   -0.2776987 
H     4.8578973    2.6543690    0.1360645 
H     5.0326678    1.8464313   -1.4218513 
H     5.2279967   -0.3341533   -0.3375235 
H     6.1241435    0.6848482    0.7961760 
H     0.3851787    0.0103988    0.4026467 
H     0.6671923   -2.7605450   -0.4553384 
H    -1.7449921   -2.6075426   -0.8988562 
H    -1.3063611   -2.2442145    0.7545167 
H    -3.7062551   -2.0549104    1.5709347 
H    -5.7381574   -1.0444260    2.5320977 
H    -6.4195718    1.2423699    1.9307043 
H    -5.0842745    2.5923298    0.3489337 
H    -2.7378978    2.4213957   -1.2208468 
H    -0.9308585    0.7731672   -1.7205812 
H     0.1984386   -2.4348284   -3.7794541 
