28
Energy = -1083.221409873
N    -2.5675585   -2.3988374   -0.0384084 
C    -1.9678895   -1.1992975   -0.5734930 
C    -2.9625795   -0.0392742   -0.4099743 
S    -2.6595502    1.4392292   -1.4148703 
C    -0.6294391   -0.9778934    0.1418722 
O    -0.1387712   -1.8506129    0.8349751 
N    -0.0293783    0.2125199   -0.0710423 
C     1.1439160    0.5969559    0.6637312 
C     2.4206292    0.5363538   -0.1948518 
O     2.3392379    1.4626836   -1.2572375 
C     2.7000107   -0.8669106   -0.6858544 
C     0.9385665    1.9917396    1.2097838 
O    -0.0215221    2.6794617    0.9990049 
O     1.9691074    2.3790849    1.9701139 
H    -1.8555992   -2.9272064    0.4532846 
H    -2.9694979   -2.9739656   -0.7622534 
H    -1.7250106   -1.2854731   -1.6436327 
H    -2.9735923    0.3071343    0.6249498 
H    -3.9592124   -0.4186467   -0.6282590 
H    -2.7620866    0.8327200   -2.6087639 
H    -0.5644999    0.9471741   -0.5226323 
H     1.2619403   -0.0923437    1.5043102 
H     3.2470013    0.8835767    0.4275625 
H     1.6807661    1.1432609   -1.8791220 
H     3.6169860   -0.8723615   -1.2752040 
H     2.8045779   -1.5637354    0.1463665 
H     1.8812540   -1.2261820   -1.3140133 
H     1.7821941    3.2806457    2.2590581 
