47
Energy = -1329.399052667
N    -1.1261985   -0.4251230   -1.9391395 
C    -0.6932900   -0.1808741   -0.5815855 
C    -1.4495211   -1.0936961    0.4080580 
C    -2.7848729   -0.5816313    0.8246987 
C    -4.0014035   -0.4952807    0.0646329 
C    -4.3585041   -0.8313215   -1.2449681 
C    -5.6608049   -0.6301904   -1.6538722 
C    -6.6220918   -0.0917950   -0.7866852 
C    -6.2997113    0.2565594    0.5094550 
C    -4.9874599    0.0475846    0.9209626 
N    -4.3921798    0.2860105    2.1307117 
C    -3.0769762   -0.0970159    2.0690574 
C     0.8020811   -0.4222356   -0.4034011 
O     1.4171335   -1.2101162   -1.1063748 
N     1.3917680    0.2510299    0.6019614 
C     2.7624965    0.0106884    0.9637433 
C     3.7377723    0.7333245    0.0185821 
C     5.1333852    0.1255849   -0.0164015 
C     5.9907482    0.8900670   -1.0019950 
O     6.5000919    1.9552980   -0.7191638 
N     6.1193409    0.3154818   -2.2214379 
C     2.9302644    0.4542091    2.3964966 
O     2.1183460    1.0997199    3.0054973 
O     4.0959320    0.0668344    2.9177059 
H    -0.6177724   -1.2296733   -2.2924922 
H    -0.8776481    0.3523289   -2.5362590 
H    -0.9164700    0.8570531   -0.3205674 
H    -0.8427755   -1.2308628    1.3073805 
H    -1.5356578   -2.0778765   -0.0623075 
H    -3.6084828   -1.2145919   -1.9238359 
H    -5.9487299   -0.8863758   -2.6661648 
H    -7.6351165    0.0562056   -1.1406123 
H    -7.0417075    0.6747700    1.1795124 
H    -4.8504875    0.6555452    2.9412033 
H    -2.4355127   -0.0062234    2.9322736 
H     0.8604506    0.8545034    1.2096886 
H     2.9606324   -1.0638097    0.9016511 
H     3.2934886    0.6605699   -0.9752345 
H     3.7940505    1.7939935    0.2749568 
H     5.6144168    0.2004678    0.9574342 
H     5.0629773   -0.9305759   -0.2874395 
H     5.6155732   -0.5170494   -2.4675121 
H     6.6064866    0.8252568   -2.9368292 
H     4.1429365    0.4268149    3.8126725 
C     2.9098062   -2.3979658   -3.1130551 
O     1.9453983   -2.8229518   -3.5816142 
O     3.9065435   -1.9927586   -2.6809710 
