33
Energy = -1235.796917559
N    -3.3037190    1.9767231   -0.7554805 
C    -2.9479740    0.8683909    0.1045006 
C    -3.9789212   -0.2445281   -0.0345818 
C    -1.5737652    0.2886269   -0.2231042 
O    -1.1786641    0.2032612   -1.3755404 
N    -0.8521041   -0.1471346    0.8261910 
C     0.4093197   -0.8222959    0.6661573 
C     1.5441520    0.1755560    0.3725449 
C     2.8501811   -0.4541410   -0.0767051 
S     4.0492076    0.7571522   -0.6653189 
C     3.3341138    1.1713848   -2.2610041 
C     0.6552689   -1.6024343    1.9337972 
O     0.0663890   -1.4209956    2.9668431 
O     1.6201381   -2.5148380    1.7947877 
H    -3.1532672    1.6943868   -1.7181442 
H    -2.6809768    2.7586260   -0.5953743 
H    -2.9480093    1.2259077    1.1393515 
H    -3.7594722   -1.0808472    0.6312760 
H    -3.9843426   -0.6177434   -1.0608228 
H    -4.9693670    0.1457179    0.1970675 
H    -1.2110226   -0.0841922    1.7657024 
H     0.3416020   -1.5200571   -0.1732132 
H     1.1575147    0.8176369   -0.4196763 
H     1.7095285    0.8099775    1.2466199 
H     2.6779028   -1.1914690   -0.8644357 
H     3.3460907   -0.9744723    0.7423660 
H     2.3312212    1.5881759   -2.1666952 
H     3.9773902    1.9284873   -2.7080102 
H     3.3147148    0.2991480   -2.9157185 
H     1.7307099   -2.9446066    2.6526006 
C     0.4395994   -0.7118748   -3.4360314 
O     0.1199995    0.1827148   -4.0927909 
O     0.7952191   -1.6227531   -2.8144237 
