39
Energy = -1062.590050101
N    -2.4843468   -0.4941190   -2.8597454 
C    -1.8913258    0.0323660   -1.6490507 
C    -2.7474318   -0.1889442   -0.3756428 
C    -2.8628281   -1.6593934   -0.0047172 
C    -2.3049398    0.6303149    0.8358280 
C    -2.2863413    2.1376885    0.6340495 
C    -0.5183220   -0.6012157   -1.5063384 
O    -0.2676293   -1.7205912   -1.9088475 
N     0.4222838    0.1668323   -0.8978891 
C     1.6927382   -0.3895625   -0.5592772 
C     2.7089362    0.6957243   -0.4073558 
C     2.6706296    2.0254317   -0.7310816 
N     3.8621678    2.6265682   -0.4306044 
C     4.6145363    1.6809451    0.0645718 
N     3.9641709    0.4914477    0.1001701 
C     1.6007214   -1.2581040    0.6944260 
O     0.6531707   -1.3142139    1.4267186 
O     2.7219003   -1.9654854    0.8813527 
H    -3.4928634   -0.4877800   -2.7997924 
H    -2.1757210   -1.4501759   -2.9889118 
H    -1.7496387    1.1116678   -1.7688699 
H    -3.7441635    0.1750780   -0.6622008 
H    -3.6165610   -1.7955958    0.7730919 
H    -1.9142893   -2.0396115    0.3791821 
H    -3.1463013   -2.2724031   -0.8612250 
H    -1.3302466    0.2732672    1.1801824 
H    -2.9976263    0.3985408    1.6505986 
H    -1.5282928    2.4677160   -0.0814572 
H    -2.0803320    2.6525636    1.5738116 
H    -3.2486560    2.4987149    0.2623290 
H     0.1397402    1.0174205   -0.4426060 
H     1.9755228   -1.0728177   -1.3678327 
H     1.8604480    2.5741484   -1.1837122 
H     5.6289634    1.7948333    0.4137845 
H     4.3106523   -0.3864194    0.4464870 
H     2.5973013   -2.5079421    1.6770671 
C     0.6895152   -3.2277012    3.5238802 
O    -0.4047122   -3.0533147    3.8341883 
O     1.7990237   -3.4322766    3.2412229 
