31
Energy = -762.5112658808
N     2.3910832   -0.5961855   -1.9187010 
C     1.6270923   -0.4556090   -0.6997913 
C     2.1830925    0.5877462    0.3081356 
O     1.3206075    0.7681544    1.4091921 
C     3.5197687    0.1564088    0.8666284 
C     0.2434306    0.0236023   -1.0796304 
O     0.0970719    0.8891376   -1.9308604 
N    -0.8133457   -0.4360120   -0.3765789 
C    -2.0749708    0.2558859   -0.5093043 
C    -2.9736855   -0.4126616    0.5429425 
C    -2.3455242   -1.7904879    0.7162744 
C    -0.8556281   -1.5039999    0.6125919 
C    -1.9040526    1.7291224   -0.2077975 
O    -1.0994543    2.1888854    0.5619948 
O    -2.8145465    2.4716497   -0.8345477 
H     2.1925073    0.1970529   -2.5171926 
H     3.3826614   -0.6168788   -1.7304627 
H     1.5783656   -1.4172401   -0.1819591 
H     2.2972450    1.5274737   -0.2495734 
H     0.5480878    1.2835941    1.1377544 
H     3.4069140   -0.7738800    1.4280743 
H     4.2631317    0.0053514    0.0827536 
H     3.8977575    0.9201212    1.5464207 
H    -2.4789402    0.1567329   -1.5187106 
H    -2.9125164    0.1417178    1.4823535 
H    -4.0157746   -0.4382256    0.2302057 
H    -2.6155203   -2.2624071    1.6604017 
H    -2.6549266   -2.4515786   -0.0963595 
H    -0.2871192   -2.3687269    0.2720445 
H    -0.4371978   -1.1674203    1.5650148 
H    -2.6657141    3.3885763   -0.5712135 
