34
Energy = -1113.349615258
N    -2.1440086    1.8922215   -1.4712493 
C    -1.4300756    1.1290939   -0.4691346 
C    -2.3677392    0.1741664    0.2031083 
C    -2.2652929   -1.0760675    0.7573514 
N    -3.4703874   -1.4614210    1.2852287 
C    -4.2893524   -0.4695760    1.0505605 
N    -3.6681425    0.5459053    0.4058772 
C    -0.2094600    0.3918768   -1.0308958 
O    -0.0382187    0.2513726   -2.2226970 
N     0.6749909   -0.0361196   -0.0946154 
C     1.8539754   -0.7667122   -0.4544800 
C     3.0682769   -0.2732606    0.3249413 
C     3.3928225    1.1615226   -0.0475056 
O     3.2861654    1.5676571   -1.1840211 
N     3.8329255    1.9366753    0.9682227 
C     1.6728458   -2.2552366   -0.2321807 
O     0.7992832   -2.7531206    0.4214806 
O     2.6391490   -2.9607280   -0.8322972 
H    -1.5652234    2.6673595   -1.7691887 
H    -2.2651729    1.3068877   -2.2911584 
H    -1.0553461    1.8446194    0.2739673 
H    -1.4037303   -1.7250768    0.7919537 
H    -5.3344687   -0.4355297    1.3169192 
H    -4.0603011    1.3923736    0.0289092 
H     0.3697651   -0.0622417    0.8645895 
H     2.0264954   -0.5886917   -1.5176146 
H     2.9014361   -0.3816327    1.4004384 
H     3.9366482   -0.8835592    0.0654995 
H     3.9322178    1.5892599    1.9026373 
H     4.1136724    2.8795855    0.7640452 
H     2.4739129   -3.8922499   -0.6398073 
C     1.4134442    2.7056066   -3.0064836 
O     1.9540002    2.2169653   -3.9000397 
O     0.8575030    3.2357922   -2.1365968 
