47
Energy = -1159.347206092
N    -0.7947371    1.0707737   -1.9940231
C    -0.8036700    0.2308968   -0.8196792
C    -2.0813158   -0.6279109   -0.7763277
C    -3.3075687    0.1705116   -0.4544508
C    -3.9569608    0.9335034   -1.4187793
C    -5.0683236    1.6963152   -1.0989874
C    -5.5529271    1.7115526    0.2031619
O    -6.6396695    2.4397671    0.5700975
C    -4.9180750    0.9566773    1.1799039
C    -3.8095602    0.1987392    0.8438993
C     0.3998138   -0.7056808   -0.7577142
O     0.9356336   -1.1300797   -1.7719812
N     0.7867370   -1.0472302    0.4834113
C     1.6910440   -2.1256416    0.7878529
C     3.1569142   -1.7013034    0.9733875
C     3.9251223   -1.5063773   -0.3421743
C     4.3793159   -0.0796132   -0.6102761
N     3.3093246    0.8479899   -0.8917176
C     2.8269069    1.7098484    0.0500732
N     3.2514644    1.7121837    1.2555310
N     1.8299539    2.5415134   -0.4744776
C     1.1792049   -2.7783835    2.0527338
O     0.3520309   -2.3016193    2.7841435
O     1.7679223   -3.9549719    2.2873936
H    -0.0883047    1.7850376   -1.8710881
H    -0.4982108    0.5031125   -2.7814040
H    -0.7937055    0.8746239    0.0643523
H    -2.1793056   -1.1234310   -1.7462427
H    -1.9591468   -1.4154768   -0.0282738
H    -3.5758292    0.9426172   -2.4316744
H    -5.5623638    2.2841101   -1.8666932
H    -6.9797555    2.9033918   -0.1970399
H    -5.3053990    0.9683803    2.1907097
H    -3.3243416   -0.3922328    1.6140253
H     0.2713059   -0.6873265    1.2717162
H     1.6351361   -2.8617712   -0.0193428
H     3.6508515   -2.4739774    1.5641744
H     3.1726178   -0.7802958    1.5614792
H     3.3172313   -1.8473137   -1.1842925
H     4.8195837   -2.1351764   -0.3344899
H     4.9226626    0.3165569    0.2476234
H     5.0630215   -0.0828402   -1.4649143
H     2.6538374    0.5649003   -1.6035909
H     2.8796372    2.4974765    1.7764044
H     1.5430590    3.2668062    0.1624367
H     2.0669574    2.9201479   -1.3797506
H     1.4115800   -4.2884800    3.1201748
