29
Energy = -649.2565914581
N     3.6770163    0.3590136    0.9907573 
C     2.7699298    0.5155506   -0.1267324 
C     3.4387449    0.0281955   -1.4058978 
C     1.4675369   -0.2614598    0.0618315 
O     1.4398150   -1.3355730    0.6367558 
N     0.3652250    0.3043873   -0.4749311 
C    -0.8989914   -0.3817459   -0.5038370 
C    -1.6430394   -0.2714094    0.8492499 
C    -2.1469856    1.1391284    1.1057368 
C    -2.7435040   -1.3075546    1.0025942 
C    -1.6868781    0.1955768   -1.6540491 
O    -1.4022210    1.2130197   -2.2302407 
O    -2.7584563   -0.5377914   -1.9682551 
H     3.7540780   -0.6316980    1.1961756 
H     3.2792543    0.7792778    1.8215672 
H     2.5374978    1.5804398   -0.2310789 
H     3.6734846   -1.0348121   -1.3190534 
H     4.3677084    0.5753786   -1.5632843 
H     2.7925043    0.1641474   -2.2748472 
H     0.4303669    1.1531600   -1.0136334 
H    -0.7210997   -1.4436210   -0.6970511 
H    -0.8632026   -0.5047811    1.5789933 
H    -2.9632121    1.4013230    0.4264696 
H    -2.5287656    1.2272185    2.1240386 
H    -1.3537269    1.8782743    0.9808411 
H    -3.1386264   -1.2796001    2.0196951 
H    -3.5717335   -1.1270371    0.3166041 
H    -2.3652331   -2.3152182    0.8191227 
H    -3.2074864   -0.0814896   -2.6913414 
