30
Energy = -1047.327198300
N     0.0608163    0.1190508    2.1163269 
C     0.7706874    0.1201135    0.8455512 
C     1.4164058   -1.2282090    0.5605746 
C     2.6559297   -1.5197541    1.3938712 
S     3.9564001   -0.2718025    1.3008536 
C     4.2475777   -0.2270453   -0.4724727 
C    -0.1363787    0.4738501   -0.3272104 
O     0.3239254    0.6604604   -1.4432289 
N    -1.4426940    0.5520130   -0.0344465 
C    -2.4191718    0.8991004   -1.0245878 
C    -2.7967349   -0.2825477   -1.9183350 
C    -3.6360785    1.4470233   -0.3220870 
O    -3.8314636    1.4004155    0.8622276 
O    -4.5082013    1.9820970   -1.1859969 
H     0.1761410    0.9925182    2.6093333 
H     0.3903484   -0.6154587    2.7249660 
H     1.5705481    0.8700031    0.8234008 
H     0.6788051   -2.0214430    0.7308755 
H     1.6696133   -1.2604518   -0.4993449 
H     3.0700008   -2.4892756    1.1065754 
H     2.4215402   -1.5829835    2.4599055 
H     3.3861222    0.1639196   -1.0147075 
H     4.5095767   -1.2164283   -0.8501533 
H     5.0934758    0.4411198   -0.6301625 
H    -1.7178973    0.4062568    0.9277324 
H    -2.0063347    1.6881506   -1.6604744 
H    -3.5156380    0.0206188   -2.6787209 
H    -1.8944182   -0.6455701   -2.4081517 
H    -3.2267431   -1.0894778   -1.3225736 
H    -5.2660601    2.2825364   -0.6695400 
