39
Energy = -1178.492175610
N     1.2242205   -2.4012130   -0.6780128 
C     0.7350172   -1.1231596   -0.2169480 
C     1.4364067    0.0262723   -0.9677949 
C     2.8477501    0.2386653   -0.5108128 
C     3.8778335   -0.6041648   -0.9202178 
C     5.1706931   -0.4140637   -0.4580509 
C     5.4566053    0.6213822    0.4204246 
C     4.4396446    1.4684770    0.8329181 
C     3.1471485    1.2752623    0.3685118 
C    -0.7666077   -0.9604478   -0.4262795 
O    -1.3486998   -1.4883147   -1.3518215 
N    -1.3916006   -0.1535345    0.4720003 
C    -2.7540911    0.2614327    0.2974375 
C    -3.6500606   -0.2028298    1.4417084 
C    -5.1133327    0.0900658    1.2523041 
O    -5.8464097    0.4786821    2.1195610 
O    -5.5213332   -0.1823665    0.0070174 
C    -2.8910593    1.7554555    0.0687252 
O    -3.8753608    2.3880340    0.3365170 
O    -1.8048859    2.2989282   -0.4931644 
H     0.7460354   -2.6277450   -1.5440772 
H     0.9841964   -3.1315622   -0.0210523 
H     0.9644606   -1.0236376    0.8487502 
H     0.8672779    0.9492416   -0.8299993 
H     1.3998300   -0.2123903   -2.0338970 
H     3.6537079   -1.4220438   -1.5925145 
H     5.9607514   -1.0786887   -0.7866639 
H     6.4682880    0.7699023    0.7777841 
H     4.6528933    2.2846955    1.5127578 
H     2.3565844    1.9476100    0.6865445 
H    -0.8331441    0.2935176    1.1782758 
H    -3.0874367   -0.2138262   -0.6319271 
H    -3.5379759   -1.2865062    1.5266992 
H    -3.3512932    0.2422880    2.3902213 
H    -6.4392746    0.1108812   -0.0639566 
H    -2.0068980    3.2311834   -0.6435969 
C    -6.8399168    3.0017346    0.9403544 
O    -7.2003161    2.3479569    0.0526891 
O    -6.5069125    3.6792769    1.8123718 
