40
Energy = -1439.832407145
N     0.0956778    0.2006128    2.8295426 
C    -0.2473545   -0.0593013    1.4485716 
C     0.4610736   -1.3304015    0.9643772 
C     1.9739072   -1.1914923    0.9134574 
C     2.4412123   -0.3515902   -0.2591092 
N     3.8728805   -0.2077998   -0.2593982 
C     4.4928275    0.5645877   -1.2187337 
N     3.9400093    1.3254161   -2.0812139 
N     5.8735637    0.4445556   -1.1856830 
C    -1.7436478   -0.2640818    1.2394230 
O    -2.4356916   -0.8102012    2.0739302 
N    -2.2242614    0.1835284    0.0469932 
C    -3.5251168   -0.1902083   -0.4203519 
C    -4.3059901    1.0040083   -0.9724656 
S    -4.6967471    2.2438583    0.2761380 
C    -3.4080393   -1.2511628   -1.5004793 
O    -2.3956676   -1.5382973   -2.0814244 
O    -4.5877883   -1.8196398   -1.7626595 
H    -0.1921699    1.1331921    3.0952586 
H    -0.4376682   -0.4363354    3.4123176 
H     0.0822271    0.7916917    0.8445190 
H     0.0735187   -1.6178846   -0.0189860 
H     0.1828323   -2.1348821    1.6503493 
H     2.4209799   -2.1881143    0.8364822 
H     2.3242809   -0.7482220    1.8480158 
H     2.0846957   -0.8073682   -1.1964221 
H     2.0014092    0.6480383   -0.2033395 
H     4.3845588   -1.0360292   -0.0000261 
H     2.9313887    1.2338612   -2.0677272 
H     6.3112381    1.1203466   -1.7909087 
H     6.2721502    0.4378689   -0.2602171 
H    -1.5539312    0.4713074   -0.6492702 
H    -4.0635901   -0.6151276    0.4288661 
H    -5.2675236    0.6640231   -1.3569814 
H    -3.7596427    1.4614781   -1.8002296 
H    -3.4297112    2.4661278    0.6568414 
H    -4.4482759   -2.4624139   -2.4697297 
C     0.0091667   -0.1979181   -3.0447320 
O    -0.2457950    0.7175558   -2.3772174 
O     0.2853337   -1.0931262   -3.7152990 
