34
Energy = -1161.785652273
N    -1.9966072    2.5557014   -0.7119068 
C    -2.2559753    1.1389002   -0.5521847 
C    -3.0420828    0.6396815   -1.7709618 
O    -2.3219798    0.8874120   -2.9571878 
C    -3.4377359   -0.8198435   -1.6430453 
C    -0.9745302    0.3275807   -0.4111431 
O    -0.1978511    0.1640122   -1.3482766 
N    -0.7241709   -0.1775671    0.8092519 
C     0.4520644   -0.9615942    1.0776582 
C     1.7067829   -0.0775542    1.2029658 
C     3.0167617   -0.8251480    1.0394152 
S     4.4592941    0.2537329    1.0301632 
C     4.2617052    1.0521857   -0.5679401 
C     0.1837551   -1.7437240    2.3392931 
O    -0.7312173   -1.5280505    3.0890171 
O     1.0926032   -2.6987072    2.5510274 
H    -1.6086604    2.7144843   -1.6340556 
H    -1.3353744    2.8966081   -0.0273833 
H    -2.8767541    0.9910754    0.3382045 
H    -3.9408575    1.2598861   -1.8310613 
H    -1.4310237    0.5361485   -2.8101725 
H    -4.0440613   -0.9904557   -0.7501229 
H    -2.5557386   -1.4630669   -1.5912796 
H    -4.0177307   -1.1187188   -2.5158539 
H    -1.3936476   -0.0922088    1.5575140 
H     0.6086161   -1.6624242    0.2518166 
H     1.6909324    0.4601479    2.1540796 
H     1.6158090    0.6636017    0.4087139 
H     3.0099803   -1.4115323    0.1160627 
H     3.1846145   -1.5220327    1.8603822 
H     4.2353646    0.3138626   -1.3701259 
H     5.1333455    1.6907702   -0.7074745 
H     3.3676819    1.6735046   -0.6116625 
H     0.8667879   -3.1265679    3.3869729 
