40
Energy = -822.4121998495
N    -2.4710889    2.5844600    0.9279024 
C    -2.2781347    1.1512556    0.8693823 
C    -3.5016601    0.4441769    0.2460462 
C    -4.7135872    0.6080624    1.1482903 
C    -3.7888504    0.9557164   -1.1576587 
C    -1.0167564    0.7799014    0.0911049 
O    -0.4834633    1.5530686   -0.6832249 
N    -0.5487175   -0.4723838    0.3136532 
C     0.4748547   -1.0593586   -0.5076919 
C     1.8372528   -1.1500727    0.1910596 
C     2.3873597    0.2135958    0.5716933 
C     3.7087389    0.1454553    1.3270828 
C     4.8535652   -0.4883519    0.5536145 
N     5.1575148    0.2698921   -0.6501261 
C     0.0194652   -2.4388991   -0.9187868 
O    -0.8906740   -3.0388990   -0.4113426 
O     0.7722872   -2.9469915   -1.9005001 
H    -2.1024914    2.9861595    0.0722744 
H    -1.9174104    2.9788603    1.6756875 
H    -2.1714991    0.7702477    1.8905028 
H    -3.2622904   -0.6236046    0.1788344 
H    -5.5880327    0.1187535    0.7147763 
H    -4.9390325    1.6670581    1.2816806 
H    -4.5384246    0.1718327    2.1349321 
H    -2.9287698    0.8431189   -1.8205937 
H    -4.6275383    0.4118501   -1.5956912 
H    -4.0568136    2.0138707   -1.1283831 
H    -1.1213671   -1.1203062    0.8311640 
H     0.5794349   -0.4373985   -1.4007086 
H     2.5247552   -1.6719780   -0.4785195 
H     1.7322934   -1.7729395    1.0866543 
H     2.4936777    0.8301367   -0.3258301 
H     1.6526479    0.7336149    1.1906290 
H     4.0050064    1.1596177    1.6072713 
H     3.5646349   -0.4158156    2.2566818 
H     5.7449898   -0.4786240    1.1860565 
H     4.6260637   -1.5484958    0.3612199 
H     4.3963111    0.2151838   -1.3137413 
H     5.9735946   -0.1055438   -1.1133391 
H     0.4420545   -3.8363262   -2.0794565 
