42
Energy = -1084.891499360
N    -2.5103027    0.5549114   -1.1228799 
C    -2.0010207    0.7801086    0.2120892 
C    -2.3125451   -0.3948576    1.1392390 
C    -3.7883590   -0.6885294    1.4328536 
C    -4.5144171   -1.4072303    0.3025700 
C    -4.5466850    0.5600171    1.8584624 
C    -0.5055129    1.0786304    0.3473197 
O    -0.0340295    1.5109277    1.3859794 
N     0.2472231    0.8215946   -0.7398005 
C     1.6742983    0.9644648   -0.7283365 
C     2.3252748   -0.2475311   -0.0396731 
C     3.8399822   -0.2710013   -0.0044560 
C     4.4490997   -0.8243985   -1.2777195 
O     3.7907398   -1.3712044   -2.1412549 
N     5.7911298   -0.6919509   -1.3764281 
C     2.1227926    1.1692424   -2.1549614 
O     1.4611725    0.9171006   -3.1258471 
O     3.3512469    1.6933826   -2.2277769 
H    -2.2472897    1.2790955   -1.7755345 
H    -2.2471342   -0.3472605   -1.4952778 
H    -2.4874178    1.6726018    0.6173282 
H    -1.8389809   -1.2956097    0.7282068 
H    -1.8051078   -0.1801142    2.0820534 
H    -3.7751909   -1.3720760    2.2904049 
H    -3.9770250   -2.3089054   -0.0031029 
H    -5.5135613   -1.7114976    0.6235171 
H    -4.6173057   -0.7613625   -0.5694588 
H    -5.5464913    0.3018374    2.2134720 
H    -4.0305294    1.0902146    2.6624498 
H    -4.6674679    1.2491060    1.0191203 
H    -0.1692845    0.4401497   -1.5726961 
H     1.9301051    1.8621947   -0.1583597 
H     1.9330635   -0.2366978    0.9776607 
H     1.9660242   -1.1517970   -0.5314874 
H     4.1702270   -0.9210830    0.8119363 
H     4.2586751    0.7177495    0.2023143 
H     6.3354739   -0.2500935   -0.6604447 
H     6.2569793   -1.0895140   -2.1721864 
H     3.5872196    1.7205225   -3.1638902 
C     1.2303722   -1.9798192   -3.5772842 
O     0.5821110   -2.0194233   -2.6165702 
O     1.8457097   -1.9664571   -4.5531638 
