39
Energy = -1062.601107424
N     2.3920476   -1.7122869   -0.8302034 
C     1.9066077   -1.5975931    0.5417061 
C     2.4940522   -0.3999158    1.2004123 
C     3.3301802   -0.2574133    2.2744628 
N     3.5949846    1.0637119    2.5096351 
C     2.9296170    1.7192002    1.5940029 
N     2.2519386    0.8816634    0.7740152 
C     0.3766657   -1.4807501    0.5714068 
O    -0.2607076   -1.7603109    1.5676371 
N    -0.1541329   -0.9975069   -0.5698474 
C    -1.5711882   -0.9052451   -0.7799771 
C    -2.0980726    0.5462947   -0.7607403 
C    -1.4191613    1.3928810   -1.8262211 
C    -1.9507960    1.1729733    0.6220145 
C    -2.8060431    0.5309906    1.6998269 
C    -1.9078037   -1.5776279   -2.0898987 
O    -1.1040826   -1.9457843   -2.9041037 
O    -3.2292833   -1.7021404   -2.2609455 
H     2.2302661   -2.6410849   -1.1982016 
H     3.3861246   -1.5335772   -0.8642960 
H     2.1413443   -2.4574352    1.1776077 
H     3.7430655   -1.0400747    2.8914564 
H     2.9009949    2.7914797    1.4787787 
H     1.6476742    1.1369977    0.0126513 
H     0.4623241   -0.9921743   -1.3724076 
H    -2.0615512   -1.4628145    0.0217270 
H    -3.1657460    0.4831410   -0.9925801 
H    -1.5268230    0.9691431   -2.8272446 
H    -1.8443735    2.3971638   -1.8412528 
H    -0.3493102    1.4931683   -1.6249884 
H    -2.2128226    2.2316836    0.5309811 
H    -0.8997995    1.1464621    0.9263677 
H    -2.7213704    1.0855775    2.6350041 
H    -2.4882100   -0.4916965    1.9065253 
H    -3.8603109    0.5178898    1.4110103 
H    -3.3643213   -2.1193456   -3.1207910 
C     0.5555136   -0.2572514    3.9758299 
O     0.9323125   -1.1970273    4.5334097 
O     0.1733850    0.7019279    3.4521349 
