49
Energy = -1239.362973491
N     3.7169930   -0.2831516    1.8291322 
C     3.0030655   -0.1513372    0.5773349 
C     3.6566568   -0.9658357   -0.5421507 
C     5.0887595   -0.5857249   -0.9392976 
C     6.1478602   -1.1358854    0.0073636 
C     5.2558625    0.9144424   -1.1314847 
C     1.5522913   -0.6168519    0.6880359 
O     1.2347240   -1.5456670    1.4139142 
N     0.6626961    0.0308217   -0.0880669 
C    -0.7258633   -0.3447694   -0.1390634 
C    -1.5068738    0.2604303    1.0513908 
C    -2.9483398   -0.0990327    1.1047843 
C    -4.0375033    0.6032448    0.4910632 
C    -4.1312167    1.7685251   -0.2750969 
C    -5.3709788    2.1734495   -0.7275317 
C    -6.5268941    1.4382961   -0.4295630 
C    -6.4664934    0.2842769    0.3270083 
C    -5.2161984   -0.1218363    0.7796557 
N    -4.8486223   -1.2062531    1.5303667 
C    -3.4919609   -1.1884835    1.7249652 
C    -1.2821586    0.1539718   -1.4487040 
O    -0.8920289    1.1509175   -2.0012049 
O    -2.2675853   -0.6094154   -1.9120357 
H     3.2901478    0.3047469    2.5341381 
H     3.6077782   -1.2353567    2.1615882 
H     3.0089906    0.9055347    0.2918609 
H     3.0178334   -0.8710262   -1.4263209 
H     3.6252821   -2.0223539   -0.2550257 
H     5.2503111   -1.0608655   -1.9143894 
H     7.1488565   -0.9377667   -0.3835391 
H     6.0615363   -0.6794875    0.9928631 
H     6.0454940   -2.2174143    0.1255591 
H     4.4955573    1.3253392   -1.8013366 
H     6.2335715    1.1408615   -1.5614367 
H     5.1902284    1.4393722   -0.1755854 
H     0.9422886    0.8133504   -0.6576391 
H    -0.8073239   -1.4308034   -0.0887657 
H    -0.9927453   -0.0941929    1.9456143 
H    -1.3833166    1.3462084    1.0117335 
H    -3.2455030    2.3457189   -0.5155691 
H    -5.4567338    3.0754446   -1.3208050 
H    -7.4852561    1.7822674   -0.7984196 
H    -7.3618348   -0.2814374    0.5563022 
H    -5.4736284   -1.8987659    1.8960487 
H    -3.0014137   -1.9616721    2.2948090 
H    -2.6388832   -0.1666552   -2.6860469 
C     0.2269208   -3.4536957    3.1554725 
O     1.2997478   -3.7927791    3.4159370 
O    -0.8672028   -3.1487641    2.9282505 
