35
Energy = -876.9994548233
N     2.9333676    0.6837843   -1.1218411 
C     2.9010524   -0.5272759   -0.3229323 
C     3.3423523   -0.2378465    1.1142590 
C     2.5783479    0.9156103    1.7022817 
O     1.4451941    0.8721848    2.0942677 
O     3.3122148    2.0438168    1.7345399 
C     1.5149619   -1.1748231   -0.3013550 
O     1.3644040   -2.2880380    0.1711141 
N     0.5339604   -0.4407556   -0.8418421 
C    -0.8245475   -0.9031447   -0.8701529 
C    -1.5405364   -0.6614939    0.4839730 
C    -2.8048647   -1.4920241    0.6305598 
C    -1.7377281    0.8142672    0.8358720 
C    -2.8912630    1.5372673    0.1560828 
C    -1.4917822   -0.2758397   -2.0679012 
O    -1.0562508    0.6597558   -2.6861328 
O    -2.6423733   -0.8803546   -2.3884600 
H     3.7159764    1.2733009   -0.8752751 
H     2.9975550    0.4764630   -2.1085883 
H     3.5645260   -1.3180236   -0.6939063 
H     4.4106280   -0.0216563    1.1347659 
H     3.1404502   -1.1264340    1.7114469 
H     2.7412572    2.7343069    2.0946193 
H     0.7602772    0.4805681   -1.1857781 
H    -0.8060818   -1.9856928   -1.0251498 
H    -0.8112240   -1.0519958    1.1990057 
H    -3.2140782   -1.3681477    1.6354652 
H    -2.5892528   -2.5527525    0.4871055 
H    -3.5778158   -1.2114493   -0.0840725 
H    -1.8846026    0.8636423    1.9186808 
H    -0.8012794    1.3470101    0.6534525 
H    -2.7618257    1.6151880   -0.9238775 
H    -2.9686086    2.5570922    0.5377156 
H    -3.8469896    1.0458955    0.3464861 
H    -3.0053210   -0.4024054   -3.1446283 
