34
Energy = -1124.676060263
N     0.6118322   -2.2275818   -0.4048917 
C     0.9631452   -0.8159215   -0.3549846 
C     2.2785334   -0.4379359   -1.0189867 
C     3.4779852   -1.2006299   -0.4837560 
S     3.6751950   -1.1948206    1.3131419 
C     3.8133877    0.5686439    1.6289449 
C    -0.1752222    0.0028457   -0.9528085 
O    -0.0406851    0.6647284   -1.9700439 
N    -1.3586809   -0.0397959   -0.3029530 
C    -2.4568792    0.7422347   -0.8153616 
C    -3.6409748    0.2969414    0.0503022 
C    -2.9799988   -0.0588208    1.3770540 
C    -1.6707657   -0.7102477    0.9514937 
C    -2.1943421    2.2268678   -0.6422761 
O    -1.4949993    2.7182809    0.1991745 
O    -2.9066290    2.9483493   -1.5196955 
H     1.2309842   -2.7624460    0.1893333 
H     0.7001138   -2.5835317   -1.3482913 
H     1.0317336   -0.5563203    0.7062877 
H     2.1989348   -0.6100132   -2.0961921 
H     2.4321214    0.6378882   -0.9097161 
H     4.3965175   -0.8250335   -0.9401129 
H     3.4112966   -2.2611057   -0.7383940 
H     4.0251283    0.6820089    2.6915176 
H     4.6371086    1.0015527    1.0598992 
H     2.8898818    1.1003251    1.3992040 
H    -2.6148666    0.5525384   -1.8768953 
H    -4.4096508    1.0645343    0.1335279 
H    -4.0949893   -0.5860949   -0.4036257 
H    -2.7744662    0.8498490    1.9452843 
H    -3.5902920   -0.7181250    1.9935182 
H    -1.7737973   -1.7856297    0.7900543 
H    -0.8781904   -0.5601732    1.6855139 
H    -2.7186696    3.8766389   -1.3349665 
