33
Energy = -1384.979789891
N     1.8174093    1.9562687   -0.1491378 
C     1.0781338    0.7174651   -0.2616307 
C     1.6269425   -0.3167474    0.7216277 
C     3.0592398   -0.6817760    0.3992934 
C     3.6630078   -1.6199495    1.3976124 
O     3.1221447   -2.0514474    2.3800669 
O     4.9266950   -1.9485453    1.0707203 
C    -0.4115262    0.8980596    0.0146238 
O    -0.8254449    1.7642429    0.7635904 
N    -1.2221749    0.0078937   -0.6026302 
C    -2.6237769   -0.0417285   -0.3296743 
C    -3.5040924    0.5828360   -1.4249904 
S    -3.0077925    2.2522814   -1.8990172 
C    -3.0472630   -1.4808019   -0.1368613 
O    -2.4032334   -2.4378104   -0.4762709 
O    -4.2562776   -1.5734159    0.4206748 
H     1.6017056    2.5613080   -0.9307794 
H     1.4878212    2.4442358    0.6773627 
H     1.2015222    0.3317869   -1.2790504 
H     1.0008361   -1.2111240    0.7145644 
H     1.5653352    0.0925409    1.7330513 
H     3.1387930   -1.1486397   -0.5876303 
H     3.6777244    0.2179657    0.3497242 
H     5.2408558   -2.5456388    1.7605478 
H    -0.8182947   -0.7362450   -1.1484023 
H    -2.7952690    0.5061987    0.5999733 
H    -3.4350287   -0.0056454   -2.3431617 
H    -4.5426846    0.5686417   -1.0961703 
H    -2.8357429    2.7229961   -0.6536306 
H    -4.4764697   -2.5120781    0.4785205 
C     0.0490861   -3.5569262   -1.5597261 
O     0.4131771   -2.4855151   -1.8175265 
O    -0.2866300   -4.6327258   -1.3178850 
