36
Energy = -952.1934424681
N     2.2932442   -1.4073116   -1.2298542 
C     2.2418817   -0.8196706    0.0857424 
C     2.9671341    0.5452303    0.1012529 
O     3.0713580    1.0500886    1.4053174 
C     4.3638083    0.4493442   -0.4680060 
C     0.8578018   -0.6358365    0.7065911 
O     0.7215247   -0.1994860    1.8465780 
N    -0.1979537   -0.9520700   -0.0597303 
C    -1.5462147   -0.8137221    0.4206600 
C    -2.0402269    0.6514603    0.3287985 
C    -2.1755878    1.1192558   -1.1108720 
C    -3.3089075    0.8953527    1.1281310 
C    -2.4051748   -1.7656536   -0.3729308 
O    -2.0913202   -2.2439559   -1.4334039 
O    -3.5750030   -2.0187376    0.2137492 
H     1.9197395   -2.3434205   -1.2672978 
H     1.8536753   -0.8417150   -1.9420033 
H     2.7918896   -1.4640031    0.7797382 
H     2.3732307    1.2341922   -0.5276547 
H     2.2587786    0.8091565    1.8770815 
H     4.9482159   -0.2745624    0.1033881 
H     4.3530785    0.1427026   -1.5119677 
H     4.8472064    1.4229240   -0.3812813 
H    -0.0589491   -1.3382904   -0.9791850 
H    -1.5735817   -1.1047430    1.4736695 
H    -1.2325638    1.2142327    0.8046143 
H    -2.9797644    0.5920613   -1.6323629 
H    -1.2487608    0.9704952   -1.6680073 
H    -2.4107692    2.1840236   -1.1414126 
H    -3.2035588    0.5454193    2.1567666 
H    -3.5245512    1.9646312    1.1594599 
H    -4.1717549    0.3938639    0.6882160 
H    -4.0673446   -2.6048192   -0.3756798 
C    -1.2331236   -1.0569130   -3.9117716 
O    -0.1461887   -0.9978612   -3.5132292 
O    -2.3071173   -1.0996531   -4.3314877 
