33
Energy = -967.0320750397
N     3.1730916   -1.0018434    1.8762894 
C     2.3333087   -0.0427751    1.1988368 
C     3.1588628    0.7111998    0.1524604 
C     3.8998703   -0.2010176   -0.7879888 
O     5.0674015   -0.1225743   -1.0464034 
O     3.0896106   -1.1124720   -1.3520148 
C     1.1064415   -0.7799503    0.6566089 
O     0.8146257   -1.8924008    1.0494896 
N     0.3286196   -0.0901508   -0.2061356 
C    -0.7757179   -0.7336115   -0.8675294 
C    -2.0661772   -0.7160926   -0.0422956 
C    -2.5668112    0.6851638    0.2386847 
C    -3.7604791    0.6909610    1.1728380 
O    -4.1269159   -0.2885097    1.7843746 
N    -4.3891087    1.8892760    1.2789370 
C    -0.9624421   -0.0500978   -2.1994236 
O    -0.3750590    0.9402378   -2.5504537 
O    -1.8817636   -0.6587045   -2.9519023 
H     2.6081580   -1.8007936    2.1400043 
H     3.6072602   -0.6109123    2.6980969 
H     1.9124866    0.7161439    1.8772910 
H     3.9137821    1.3126393    0.6568610 
H     2.5513823    1.4026369   -0.4398829 
H     3.6450819   -1.6714943   -1.9084061 
H     0.6861744    0.7286383   -0.6700614 
H    -0.5164339   -1.7801304   -1.0555539 
H    -2.8293799   -1.2943472   -0.5638644 
H    -1.8653110   -1.2332890    0.8950019 
H    -1.7741385    1.2795523    0.7054648 
H    -2.8374027    1.2067147   -0.6857144 
H    -5.1552912    1.9722411    1.9225644 
H    -4.0628590    2.7067473    0.8000353 
H    -1.9509669   -0.1611852   -3.7762092 
