40
Energy = -1175.614088466
N     1.4304286    1.6767461   -1.5576951 
C     0.7484009    0.5982746   -0.8782839 
C     1.3856347    0.3345048    0.4892667 
C     2.8337163   -0.0408155    0.3631783 
C     3.2024345   -1.3670724    0.1548176 
C     4.5337294   -1.7192579   -0.0041191 
C     5.5200717   -0.7450197    0.0438965 
C     5.1647943    0.5792995    0.2526840 
C     3.8317715    0.9279309    0.4113631 
C    -0.7350057    0.9549291   -0.8460036 
O    -1.2564517    1.5360268   -1.7775547 
N    -1.4354688    0.5446010    0.2365315 
C    -2.8507932    0.7802359    0.3480354 
C    -3.6830206   -0.4220732    0.0418431 
C    -4.7419261   -0.6185608   -0.8004189 
N    -5.1865338   -1.9080463   -0.7203654 
C    -4.4104134   -2.4898039    0.1574185 
N    -3.4868864   -1.6340434    0.6561648 
C    -3.1552938    1.2358826    1.7633103 
O    -2.5058312    0.9194523    2.7278558 
O    -4.2491280    1.9862735    1.8281119 
H     0.8440455    2.0045706   -2.3152631 
H     2.3118959    1.3626124   -1.9375503 
H     0.7762185   -0.3525088   -1.4400778 
H     0.8658836   -0.4896287    0.9868994 
H     1.2833754    1.2332656    1.1021103 
H     2.4356519   -2.1342201    0.1213253 
H     4.8021489   -2.7570044   -0.1612883 
H     6.5612291   -1.0176598   -0.0772577 
H     5.9292281    1.3458179    0.2943167 
H     3.5543820    1.9639802    0.5647175 
H    -0.9610521    0.1846971    1.0452858 
H    -3.1203505    1.5661348   -0.3579050 
H    -5.1971019    0.1029115   -1.4602546 
H    -4.4670044   -3.5222621    0.4657266 
H    -2.7619983   -1.8505904    1.3203632 
H    -4.4156684    2.1815791    2.7593144 
C    -1.0103381   -1.2550283    3.8010728 
O    -1.0543049   -1.7414692    2.7463303 
O    -0.9484014   -0.7987253    4.8559415 
