38
Energy = -1331.113410640
N     3.2386308    0.8340099   -0.3889681 
C     2.2997346    1.0788983    0.6816888 
C     1.3306776    2.1844666    0.2749965 
S     2.1273273    3.7840883    0.0147782 
C     1.4337910   -0.0893286    1.1615654 
O     0.7642599    0.0120317    2.1706298 
N     1.4295777   -1.1888034    0.3737231 
C     0.4562667   -2.2202158    0.5350660 
C    -0.5633708   -2.2573999   -0.6359622 
C    -1.0320661   -0.9057706   -1.0395323 
C    -1.7931855    0.0340694   -0.2660846 
C    -2.3415003    0.0167511    1.0193223 
C    -3.0158638    1.1303678    1.4721886 
C    -3.1555371    2.2710495    0.6691361 
C    -2.6255297    2.3207703   -0.6042314 
C    -1.9488884    1.1938353   -1.0581480 
N    -1.3113047    0.9630135   -2.2494005 
C    -0.7637290   -0.2943350   -2.2321798 
C     1.1231573   -3.5702893    0.6277260 
O     2.2288871   -3.8210041    0.2326029 
O     0.3034527   -4.4902536    1.1533301 
H     2.7873206    0.5848625   -1.2584401 
H     3.9451261    0.1519971   -0.1574719 
H     2.8570031    1.4184446    1.5579505 
H     0.7885919    1.8822418   -0.6249593 
H     0.5960034    2.3271165    1.0660938 
H     3.1492855    3.2983531   -0.7082472 
H     2.0432789   -1.2208532   -0.4204520 
H    -0.0645790   -2.0078967    1.4693514 
H    -0.0918241   -2.7396892   -1.4975231 
H    -1.3951587   -2.8975894   -0.3319597 
H    -2.2249771   -0.8474714    1.6606695 
H    -3.4361639    1.1318994    2.4698783 
H    -3.6850573    3.1320828    1.0576516 
H    -2.7272495    3.2059908   -1.2203680 
H    -1.2761575    1.6007088   -3.0216686 
H    -0.2235983   -0.6728571   -3.0863314 
H     0.7734689   -5.3332915    1.1337794 
