30
Energy = -1345.690307444
N     2.6933170    1.4447596    0.4522331 
C     1.7188699    0.4766927    0.0118095 
C     2.1108780   -0.9103479    0.5256936 
C     3.4493495   -1.3547621    0.0088294 
O     4.3455275   -1.7842582    0.6782240 
O     3.5276032   -1.2574354   -1.3318599 
C     0.3082696    0.7604063    0.5158324 
O     0.1056670    1.2711429    1.5985574 
N    -0.6941771    0.3803849   -0.3169030 
C    -2.0495085    0.3190716    0.1430828 
C    -3.0428722    0.5762233   -0.9829795 
S    -2.6585451    2.1724807   -1.7564293 
C    -2.3353414   -1.0337685    0.7802001 
O    -1.6149975   -1.9895278    0.7111666 
O    -3.5105406   -1.0332968    1.4175587 
H     2.5377428    2.3354632   -0.0008386 
H     2.5762844    1.6029177    1.4473005 
H     1.7170941    0.4568498   -1.0809291 
H     1.3627031   -1.6526884    0.2311782 
H     2.1607208   -0.9035365    1.6140879 
H     4.4118190   -1.5562520   -1.5757177 
H    -0.4481478   -0.1685173   -1.1238710 
H    -2.1636055    1.0821098    0.9161114 
H    -4.0485319    0.5969294   -0.5691466 
H    -2.9872274   -0.2230051   -1.7261148 
H    -3.8370985    2.3053818   -2.3822628 
H    -3.6340527   -1.9134109    1.7948883 
C    -0.3608873    2.4438756    4.0863159 
O     0.7754936    2.5236918    4.2858721 
O    -1.5049710    2.3812733    3.9245315 
