40
Energy = -1104.496606829
N     0.6602447   -1.4604135    0.2686868 
C     0.8239804   -0.0896549    0.7157771 
C     1.6468401    0.7066690   -0.3041987 
C     3.0456418    0.1823617   -0.4346838 
C     3.9967714    0.4583386    0.5456074 
C     5.2791609   -0.0566937    0.4548814 
C     5.6343013   -0.8606896   -0.6202129 
C     4.6989454   -1.1405001   -1.6033253 
C     3.4147541   -0.6209192   -1.5094601 
C    -0.5161026    0.6135769    0.8851955 
O    -0.6050590    1.6518537    1.5181177 
N    -1.5446612    0.0210212    0.2562576 
C    -2.8776507    0.5399891    0.3079971 
C    -3.4413692    0.6886348   -1.1080467 
O    -3.5369981   -0.6314366   -1.6189643 
C    -4.7547560    1.4331588   -1.1950284 
C    -3.8098437   -0.2866297    1.1789333 
O    -4.9031322    0.0760429    1.5162298 
O    -3.2942864   -1.4680250    1.5408103 
H     1.5353586   -1.8164091   -0.0943330 
H     0.3850988   -2.0611082    1.0341893 
H     1.3220904   -0.0002150    1.6892871 
H     1.6550688    1.7479695    0.0218756 
H     1.1376239    0.6602060   -1.2705353 
H     3.7261427    1.0896878    1.3851999 
H     6.0071690    0.1731126    1.2235680 
H     6.6377232   -1.2619189   -0.6921264 
H     4.9681933   -1.7617089   -2.4490873 
H     2.6876962   -0.8353022   -2.2855124 
H    -1.3494287   -0.8482044   -0.2195566 
H    -2.8206109    1.5277672    0.7707358 
H    -2.6735787    1.2445593   -1.6625133 
H    -3.9161637   -0.5954062   -2.4979178 
H    -5.5401253    0.9147980   -0.6481622 
H    -4.6557193    2.4393035   -0.7841699 
H    -5.0519238    1.5296447   -2.2426784 
H    -3.9717220   -1.9041162    2.0726407 
C    -0.8084320    4.0241074    2.9647954 
O     0.3180926    3.9929468    3.2249633 
O    -1.9387572    4.0985035    2.7288597 
