43
Energy = -1119.119659174
N     0.2748381   -0.1327336    2.9813657 
C    -0.5943569    0.1120217    1.8356622 
C    -0.4660625    1.5745017    1.4143254 
C    -1.1818239    2.0150518    0.1437268 
C    -2.6888870    1.7587715    0.0994579 
N    -3.0500018    0.4413312   -0.3626471 
C    -2.9450478    0.1547564   -1.7011332 
N    -2.8874072    1.0982088   -2.5663642 
N    -2.9785332   -1.2059624   -1.9628656 
C    -0.3017464   -0.9377065    0.7621539 
O    -1.1824821   -1.7442563    0.4567748 
N     0.9096931   -1.0211392    0.1946860 
C     2.0896952   -0.2466724    0.5155880 
C     3.2187501   -1.2529729    0.2674495 
C     2.7112340   -2.0481099   -0.9316613 
C     1.2037154   -2.1322424   -0.7090354 
C     2.2974704    0.9783980   -0.3534763 
O     2.9957613    1.9009122   -0.0343117 
O     1.6625400    0.9100834   -1.5309514 
H     0.0045871   -0.9871711    3.4510341 
H     0.1846449    0.6225495    3.6484429 
H    -1.6473665   -0.0772237    2.0765397 
H    -0.8583640    2.1587382    2.2562260 
H     0.5919417    1.8393581    1.3492542 
H    -0.7396916    1.5463228   -0.7382752 
H    -1.0047277    3.0886653    0.0334341 
H    -3.1502197    2.4672138   -0.5867623 
H    -3.1363870    1.9140182    1.0861458 
H    -2.8223116   -0.3301409    0.2430638 
H    -2.8536762    0.7220043   -3.5066771 
H    -2.7067980   -1.4457213   -2.9003041 
H    -2.5259839   -1.7822054   -1.2660410 
H     2.0542887    0.0849615    1.5517679 
H     4.1799196   -0.7678928    0.1039594 
H     3.3031444   -1.8907259    1.1494267 
H     3.1676111   -3.0343710   -1.0036851 
H     2.9271198   -1.5132229   -1.8572394 
H     0.8974164   -3.0649073   -0.2306286 
H     0.6305968   -2.0343749   -1.6316376 
H     1.8581698    1.7271630   -2.0070615 
C    -2.2288217   -3.3905670    2.4482978 
O    -1.5926682   -2.8543539    3.2562262 
O    -2.8785004   -3.9534288    1.6785354 
