30
Energy = -944.7522605800
N     3.1618482   -0.2680380    1.2880544 
C     2.4960614   -0.1312073    0.0127673 
C     3.1936869   -0.9974845   -1.0274164 
C     1.0240473   -0.5300884    0.0539944 
O     0.6379664   -1.5101637    0.6824464 
N     0.1854764    0.2340647   -0.6615770 
C    -1.2148709   -0.0950034   -0.8179606 
C    -2.0467530    0.2260692    0.3805948 
C    -3.0070661    1.1661907    0.6429364 
N    -3.4476897    1.0506256    1.9302406 
C    -2.7635518    0.0571165    2.4428723 
N    -1.9089450   -0.4798817    1.5452307 
C    -1.7146694    0.6439412   -2.0425666 
O    -1.0981006    1.5125087   -2.5978999 
O    -2.9085054    0.2111270   -2.4372395 
H     2.7353555    0.3285649    1.9850128 
H     3.0696417   -1.2209435    1.6195895 
H     2.5656351    0.9174406   -0.2945519 
H     2.7402778   -0.8833437   -2.0132322 
H     3.1270963   -2.0486394   -0.7395514 
H     4.2453020   -0.7187289   -1.0844090 
H     0.5122559    1.0401104   -1.1716312 
H    -1.2921833   -1.1686347   -1.0234326 
H    -3.4114472    1.9080110   -0.0281412 
H    -2.8476347   -0.3136591    3.4524373 
H    -1.2238089   -1.2085977    1.6882623 
H    -3.1650818    0.7330756   -3.2081218 
C     0.8946916   -2.8545144    3.0988247 
O     2.0219711   -3.0808262    2.9830513 
O    -0.2330157   -2.6448406    3.2574949 
