16
Energy = -512.0078776321
H    -0.4194085    1.6235301   -1.3185902 
N    -0.8109952    2.1527673   -0.5531739 
H    -0.7131841    3.1340692   -0.7713359 
H    -2.3870431    1.8831541    0.3864229 
O    -2.4921378    1.7994754    1.3608523 
C    -1.2489947    1.7720293    1.8199084 
C     0.4894737    0.4470954    0.6483576 
O    -0.9800328    1.7008134    2.9882029 
O     0.9878847    2.0822003    5.3374796 
H    -0.2214347   -0.3166466    0.3241401 
H     1.3230335    0.4716360   -0.0559741 
H     0.5569365    2.5481653    1.0355826 
C    -0.1829159    1.8080765    0.7207321 
O     1.9776680    2.5050046    3.2899411 
C     1.4598218    2.2884931    4.3046140 
H     0.8729362    0.1666444    1.6274445 
