29
Energy = -794.6117289657
H    -0.7026322    0.8169287   -5.2209215 
H    -2.1136373    0.1959384   -3.2889900 
C    -1.4284557    1.0469765   -3.1977374 
C    -1.1166915    1.5957672   -4.5774274 
H    -3.1294948    1.4325183   -5.2890613 
C    -2.3334673    2.1845604   -5.2764210 
H    -3.6873342    3.2384277   -4.1227117 
H    -1.9283049    1.8003869   -2.5844565 
H     0.3705242   -0.1369796   -3.0550350 
N    -0.4039429    0.0559652   -1.1550913 
C    -0.1684950    0.6108271   -2.4672808 
H    -0.4913470   -0.7054690    1.1856661 
N    -1.0080637    0.1494348    1.0532450 
C    -0.6770476    0.8667396   -0.0881749 
H    -0.8466713   -0.8467259   -1.1277489 
H    -1.0538753    0.7028470    1.8915462 
H     0.4934985    1.4687291   -2.3427557 
H    -0.3513417    2.3766660   -4.5006347 
H    -2.1635300    3.8159477   -4.0356863 
C    -2.0226951    2.4501090   -6.7563454 
H    -2.7737676    4.0703547   -6.3559331 
O    -2.3988348    3.6539742   -7.1669682 
O    -1.5076163    1.6355762   -7.4708027 
N    -2.8484181    3.4043360   -4.6567223 
O    -0.5071899    4.3195598   -2.4950506 
C    -0.3569836    4.6575153   -1.3966508 
N    -0.6371371    2.1424886   -0.1891753 
H    -0.7417649    2.5826210    0.7175511 
O    -0.2030870    5.0696544   -0.3286262 
