22
Energy = -739.7484527928
C    -3.8541489   -1.3475756   -0.1340791 
O    -2.9958949   -2.0959031   -0.3659912 
H    -0.8479918   -1.5475538    0.6028620 
H    -0.3286035    0.4764457   -0.7710295 
O    -4.7335110   -0.6350969    0.0749654 
C    -1.0345234    0.9868945    1.1267471 
O    -2.1041725    0.4720479    1.3149870 
O     1.3634364   -1.0699277   -2.6845761 
C     0.6217827   -1.5779540   -1.8926998 
H     2.0669682   -1.6269982   -0.3757433 
C     1.0141947   -1.8906571   -0.4669498 
H     0.9287977   -2.9673192   -0.2952554 
C     0.1607212   -1.1388189    0.5508943 
H    -1.1576785   -2.2022390   -1.5023098 
O    -0.6410798   -1.8678382   -2.2443078 
H     0.5900108   -1.2744354    1.5486132 
N     1.2889578    1.1066012    0.3557893 
H     1.7559065    1.1905404   -0.5358312 
H     1.9345229    0.6746618    1.0038810 
C     0.0484098    0.3500632    0.2500083 
H     0.2221510    2.3107037    1.2948653 
O    -0.6927043    2.1627589    1.6250579 
