13
Energy = -472.7229212471
O    -1.2097136    1.7207054   -0.6062303 
O    -0.6867703    3.8826820   -0.6899934 
H     1.7991732    0.4870392    0.0938097 
H     1.0072186    0.7624039    1.4947437 
N     0.9971387    0.9413716    0.5021145 
O     1.9563670    4.9120958   -1.8199976 
C     1.1372639    5.7328680   -1.8112086 
H    -0.6985015    0.9452694   -0.2832250 
O     0.3550156    6.5813155   -1.8211623 
C    -0.3998938    2.7510709   -0.4112214 
H     1.7067909    2.6468941   -0.5337910 
H     1.1037427    3.0000260    1.0668516 
C     0.9451526    2.3639342    0.1940510 
