25
Energy = -629.8536268892
H    -4.1203541    0.2520625    0.5544797 
O    -3.8108353   -0.6258279    0.8758934 
O    -2.0165901   -1.1898338    2.0592433 
C    -2.6851135   -0.3506849    1.5173143 
N    -3.2567657    1.8661221    0.6655467 
H    -2.8356837    2.0801615   -0.2283499 
H    -3.5664611    2.7326303    1.0777678 
C    -2.3319875    1.1411172    1.5343976 
H    -2.5201788    1.4528801    2.5661061 
H     1.4747641    0.1266541    0.2795886 
H    -0.9312872   -0.0363630   -0.3923989 
H     1.2322731    0.4898957   -1.4285321 
C    -0.9516355   -0.7876123    4.6667235 
O    -0.5617368   -1.8718234    4.7315483 
H    -0.3189407    0.6741014    1.9292023 
O    -1.3237967    0.3104706    4.6438338 
C     1.0204077    0.8358164   -0.4157300 
C    -0.4769505    0.9356858   -0.1766876 
H    -0.9026492    1.6470434   -0.8957620 
H     1.5199797    1.7974567   -0.2875728 
H    -0.9439417    3.4946847    0.9170445 
C    -0.4322820    2.7794772    1.5677620 
H    -0.6735199    3.0319990    2.6025088 
H     0.6395647    2.9267932    1.4352827 
C    -0.8417742    1.3507819    1.2481419 
