25
Energy = -629.8542420054
H     0.0100905    1.1085134   -3.3856470 
N    -0.9549385    1.2348772   -3.1219425 
H    -1.2755184    0.3788384   -2.6916598 
C    -1.1527927    2.3876421   -2.2443858 
H    -2.1439675    2.1071591   -4.2168710 
C    -0.5845547    1.3152582    0.0214634 
C    -1.2438298    0.7418707    1.2675122 
H    -2.0319148    0.0301883    1.0118579 
H    -0.1573914    0.4796684   -0.5482036 
C    -1.6293253    2.0092037   -0.8475269 
H    -1.6965555    1.5389938    1.8634797 
H    -0.5164070    0.2275723    1.8985446 
C    -2.1493333    3.3609696   -2.8846539 
O    -2.6034107    2.9648407   -4.0632993 
O    -2.4757292    4.3917129   -2.3609577 
O     0.2329372    5.4957988   -1.4426851 
H    -1.9818247    2.9143725   -0.3467847 
C    -0.5863065    5.6807822   -0.6450254 
O    -1.3683918    5.8751960    0.1830091 
H    -2.5078801    1.3606498   -0.9552118 
C     0.5481024    2.2571843    0.4037884 
H     1.2958075    1.7415399    1.0092387 
H     0.1628739    3.0926257    0.9955841 
H     1.0610732    2.6730979   -0.4652710 
H    -0.2213747    2.9544823   -2.1678999 
