27
Energy = -685.1653220209
C    -1.0035695    0.8790998    1.3664127 
H    -2.0910646    0.7722255    1.2992325 
H    -0.7601078   -0.0931289   -0.5283470 
H    -0.8438938    1.6618692   -0.6212534 
H    -0.6504320    0.0091215    1.9333248 
C    -0.6496178    2.1493965    2.1188405 
H    -1.1161492    1.3595148    4.0758764 
H    -2.4049519    2.3070686    3.3686839 
C    -1.3146306    2.2516094    3.4782138 
O    -1.4644127    2.4388994    6.3589925 
H    -0.9209566    3.0131545    1.5014717 
C    -1.3827497    3.4379064    5.7014368 
H    -1.5648054    5.2394735    5.3931810 
O    -1.7283147    4.6390250    6.1535331 
H    -1.9599367    4.7267570    3.1141822 
C    -0.8340447    3.4584900    4.2700514 
N    -1.1090014    4.7587261    3.6616890 
H    -0.3637784    5.0455253    3.0436295 
N     1.0216024    0.9879813   -0.0231620 
H     1.4462617    0.2332118    0.5021290 
H     1.3968778    0.9331855   -0.9607606 
C    -0.4286667    0.8331520   -0.0384910 
H     0.4348631    2.2055919    2.2381843 
O     2.7491659    3.3911334   -1.0243061 
C     2.2555176    3.7495427   -0.0417964 
O     1.7829792    4.1583343    0.9326136 
H     0.2524345    3.3797153    4.3890766 
