23
Energy = -988.6411642143
O    -3.9563317   -0.5257926   -2.0468186 
H    -3.2984353   -0.7961093    0.7935167 
C    -4.7309977    0.2228417   -2.4763679 
O    -5.4894955    0.9550383   -2.9452944 
C    -3.6267738   -0.0467741    1.5215613 
H    -3.4829400   -0.0487560    3.5752771 
N    -3.6650692   -0.7016073    2.8239074 
H    -2.9802503   -1.4417180    2.8824117 
H    -5.4930678   -0.7410789    2.5143495 
C    -5.0450681    0.3284604    1.0930789 
O    -5.2856050    1.0442752    0.1581632 
H    -2.7743656    1.5525994    0.4057621 
H    -3.0355621    1.9425381    2.0865090 
O    -5.9894850   -0.2386928    1.8302266 
C    -2.6917767    1.1471946    1.4145918 
S    -0.5399238   -0.6002444    0.8958698 
C    -0.6074801   -0.0342870   -0.8086937 
H    -0.0674271    0.9064905   -0.9224793 
H    -1.6312524    0.0732846   -1.1633661 
H    -0.1123885   -0.7962767   -1.4094924 
C    -1.2450405    0.8218484    1.7524411 
H    -0.6137965    1.6948641    1.5722199 
H    -1.1393023    0.5720266    2.8110438 
