26
Energy = -742.8802796178
H    -1.9112177   -1.5496942    0.4686509 
C    -1.3578758   -2.3485411    2.3796048 
C    -1.4889495   -1.3358600    1.4443025 
H    -1.6777108   -3.3535321    2.1320389 
C    -0.8242453   -2.0788262    3.6333240 
H    -0.7240075   -2.8717117    4.3641940 
H    -0.2574520   -0.0398917   -0.8777695 
C    -1.1931280    1.0481858    0.7137559 
O    -1.2523117    1.9955831   -2.1878027 
O    -3.4360215    0.5197211   -3.7799738 
C    -3.0366234   -0.0932674   -2.8880616 
H    -2.1613490    1.0163655    0.2134133 
C    -0.3451397    2.0160212   -1.4009224 
O    -2.6669027   -0.7472394   -2.0041949 
C    -1.0910977   -0.0346956    1.7462246 
H    -1.0987676    2.0287934    1.1885989 
C    -0.4289014   -0.7886593    3.9461972 
H    -0.0195649   -0.5666210    4.9242457 
N     1.2171703    1.0627373    0.2111251 
C    -0.1126627    0.9156153   -0.3664526 
O     0.5256139    3.0128249   -1.3214224 
H     1.9022873    0.5197424   -0.2962143 
H     1.2308549    0.7410240    1.1708655 
H     1.1508962    2.7325137   -0.6158792 
H    -0.2676633    1.2381332    3.2616860 
C    -0.5634703    0.2255616    3.0070115 
