30
Energy = -874.3641941583
H    -3.6525510   -3.6875553    0.9029409 
H    -3.0298218   -1.3147412    0.6707641 
C    -2.2609744   -4.0877938    2.4908587 
C    -1.5414572   -1.4145713    2.2353255 
H    -2.5572937   -5.1261847    2.5719885 
C    -1.2804777   -3.5968244    3.3304638 
C    -2.5346636   -1.9400163    1.4041149 
C    -2.8834107   -3.2681324    1.5392960 
O    -2.2547032    2.4758295   -0.9636251 
H    -2.2992215    1.3027744    1.5184221 
O     1.6929297   -2.3561759    0.9664510 
N    -0.0023694   -1.5052741    3.8630265 
H     0.5388064   -1.8187890    4.6465341 
C    -0.9323862   -2.2574198    3.1913668 
H    -0.8011433   -4.2323721    4.0650620 
O     2.1285841   -3.7739641    2.7416685 
C     1.9009174   -3.0652921    1.8562301 
N     0.6815412    0.7166041    0.0417535 
C    -0.7582226    0.9237352    0.0906024 
C    -1.1277926    2.1997735   -0.6621925 
O    -0.0863757    2.9891004   -0.9094622 
H     0.9427748    0.1454981   -0.7505148 
H     0.9891446    0.2198011    0.8693672 
H    -1.3232193    0.1077387   -0.3687416 
H     0.6851011    2.4843978   -0.5689272 
C    -1.2294246    1.0857724    1.5438819 
H    -0.7344764    1.9597903    1.9770671 
C    -0.9429684   -0.1164676    2.3701361 
H     0.6290737    0.5348268    3.7851247 
C    -0.0197584   -0.2221795    3.3723341 
