48
Energy = -1106.187937054
N     2.5158860    0.9763384    0.8183800 
C     2.4513705   -0.1255894   -0.1188167 
C     3.3318134   -1.2874965    0.3461569 
C     4.8290888   -1.1609553    0.0869981 
C     5.5598051    0.0044405    0.7545256 
C     5.6505712    1.2570840   -0.1092017 
N     6.2952396    2.4022902    0.5102307 
C     1.0619307   -0.6751803   -0.4495116 
O     0.9039506   -1.5188237   -1.3122435 
N     0.0201448   -0.1720761    0.2532842 
C    -1.2896256   -0.7651501    0.1233557 
C    -1.9664443   -0.4448313   -1.2185285 
C    -3.4513637   -0.4191595   -1.1248584 
C    -4.2344542    0.5854485   -0.4644131 
C    -3.9203899    1.7662982    0.2140273 
C    -4.9428110    2.5285538    0.7427462 
C    -6.2813420    2.1372267    0.6051818 
C    -6.6244947    0.9792738   -0.0658853 
C    -5.5922446    0.2133811   -0.5950356 
N    -5.6210905   -0.9583960   -1.3026190 
C    -4.3384495   -1.3325686   -1.6153330 
C    -1.1878238   -2.2505034    0.4663391 
O    -0.5043162   -2.6727032    1.3577867 
O    -1.9738565   -3.0327190   -0.2789232 
H     1.9291697    1.7574631    0.5646431 
H     2.3250527    0.6909378    1.7683550 
H     2.8351382    0.2247118   -1.0839069 
H     2.9734243   -2.1858119   -0.1582810 
H     3.1511109   -1.4416913    1.4171766 
H     5.2816021   -2.1015057    0.4130506 
H     4.9950714   -1.1165271   -0.9959315 
H     5.0716054    0.2605817    1.7001986 
H     6.5801406   -0.3048653    1.0071765 
H     4.6478691    1.5662337   -0.4077496 
H     6.1928672    1.0158471   -1.0297646 
H     7.2194108    2.1517857    0.8395668 
H     5.7688991    2.6914828    1.3251329 
H     0.2268143    0.3684779    1.0730523 
H    -1.9056585   -0.3386269    0.9204567 
H    -1.6043521    0.5416214   -1.5198472 
H    -1.6259602   -1.1489255   -1.9747900 
H    -2.8894515    2.0863674    0.3169520 
H    -4.7120554    3.4462804    1.2694969 
H    -7.0618964    2.7561241    1.0299659 
H    -7.6612831    0.6835568   -0.1746569 
H    -6.4481731   -1.4627551   -1.5580968 
H    -4.1447702   -2.2416759   -2.1613931 
H    -1.8356696   -3.9333697    0.0395513 
