43
Energy = -1227.352439355
N -3.5159922 -1.4632322 -1.7057698
C -3.7025275 -0.1207493 -1.1864247
C -4.5433716 -0.0757270 0.0521629
C -5.4350721 -0.9816676 0.5674582
N -5.9937728 -0.5034483 1.7205399
C -5.4525462 0.6747962 1.9018680
N -4.5764200 0.9818377 0.9184241
C -2.3659280 0.5979823 -0.9698042
O -2.3229216 1.7042879 -0.4420859
N -1.2968307 -0.0534164 -1.4260269
C 0.0334598 0.4847911 -1.3186553
C 0.7103302 0.0165468 -0.0199633
C 2.1016380 0.5820035 0.2426559
C 3.2249909 -0.3235243 -0.2465796
N 4.5458192 0.2112395 -0.0101433
C 5.0789054 0.1607083 1.2568209
N 4.4866022 -0.4704294 2.1944655
N 6.2682082 0.8748840 1.3545481
C 0.8012188 0.0554382 -2.5449960
O 0.6384014 -0.9874690 -3.1176467
O 1.7092966 0.9641539 -2.9253417
H -3.5174838 -2.1354553 -0.9494735
H -4.2562752 -1.7177184 -2.3419494
H -4.1859258 0.4751238 -1.9713776
H -5.7107341 -1.9452910 0.1681786
H -5.6525364 1.3424200 2.7254235
H -3.9680820 1.7833008 0.8366813
H -1.4580530 -0.9428072 -1.8820582
H -0.0393392 1.5731419 -1.2987117
H 0.0302048 0.3163122 0.7782701
H 0.7333992 -1.0777729 -0.0181319
H 2.1955696 1.5723064 -0.2139095
H 2.2403257 0.7142514 1.3162711
H 3.1357367 -0.5293836 -1.3152232
H 3.1678471 -1.2775329 0.2784039
H 4.7688767 1.0510466 -0.5188159
H 5.0553725 -0.5065812 3.0322641
H 6.7710537 0.7180758 2.2112750
H 6.8660436 0.8114615 0.5454847
H 2.1681180 0.5957961 -3.6914655
C -1.3281888 3.2415604 1.6201183
O -2.4154721 3.3322473 2.0073706
O -0.2285381 3.1737119 1.2703107
