37
Energy = -928.4673255999
N    -0.5762315   -2.0395220    0.7558357 
C    -0.3790833   -0.7126811    0.2278344 
C    -1.2765212    0.2859795    0.9573664 
C    -2.7673458    0.0426960    0.7667593 
C    -3.2175218   -0.0180176   -0.6824604 
N    -2.8463507    1.1688882   -1.4120575 
C    -3.2885087    1.3499119   -2.7085392 
N    -4.1272984    0.6381972   -3.3543347 
N    -2.7029403    2.4480755   -3.3154106 
C     1.0393598   -0.1434404    0.2009695 
O     1.2517161    0.9319095   -0.3505121 
N     1.9860816   -0.8730412    0.8019453 
C     3.3940307   -0.5595685    0.8255530 
C     3.7350657    0.7837943    1.5036465 
O     3.6000564    1.8663514    0.6413099 
C     4.0738969   -1.7235934    1.5065912 
O     3.4933311   -2.6493430    2.0112545 
O     5.4014623   -1.6150288    1.4838948 
H    -0.4158413   -2.1059167    1.7508785 
H    -0.0618582   -2.7588162    0.2707330 
H    -0.6687740   -0.7275032   -0.8285764 
H    -1.0396787    0.2482557    2.0268213 
H    -1.0005989    1.2897174    0.6297827 
H    -3.0478830   -0.9006768    1.2388707 
H    -3.3141723    0.8387236    1.2788156 
H    -2.8239708   -0.9288554   -1.1570231 
H    -4.3066242   -0.1046382   -0.7036778 
H    -1.9007719    1.4862127   -1.2643923 
H    -4.3796368   -0.1987300   -2.8431553 
H    -2.5967766    3.2561884   -2.7237499 
H    -3.1399205    2.6590907   -4.1975620 
H     1.7307163   -1.7485233    1.2339484 
H     3.7917351   -0.4971880   -0.1943529 
H     3.1015385    0.8737955    2.3983998 
H     4.7763323    0.7563012    1.8271717 
H     2.7418225    1.7698769    0.1916349 
H     5.7613637   -2.3887816    1.9352866 
