23
Energy = -570.6918864808
N    -3.0435470   -0.8885790   -0.7012436 
C    -2.0952996    0.1688641   -0.4240968 
C    -2.5070941    1.1127206    0.7075575 
C    -0.7751888   -0.4841653   -0.0422271 
O    -0.7332708   -1.5113994    0.6116033 
N     0.3338616    0.1760527   -0.4296351 
C     1.6454991   -0.2458631   -0.0200745 
C     2.1723387   -1.4188703   -0.8454328 
C     2.5648018    0.9448189   -0.1303294 
O     2.2739906    1.9900313   -0.6493131 
O     3.7663019    0.7005297    0.4001248 
H    -3.9914655   -0.5650150   -0.5670979 
H    -2.8731025   -1.6460134   -0.0488059 
H    -1.9404008    0.7601422   -1.3344065 
H    -3.4660074    1.5791748    0.4718945 
H    -2.6129111    0.5541702    1.6394782 
H    -1.7748879    1.9094610    0.8595866 
H     0.2718821    1.0484225   -0.9292224 
H     1.6065290   -0.5534228    1.0292609 
H     3.1532719   -1.7310401   -0.4890001 
H     2.2464601   -1.1423977   -1.8983851 
H     1.4765145   -2.2502424   -0.7465695 
H     4.3016241    1.4927205    0.2675341 
