38
Energy = -1331.122146097
N     0.4155208   -2.1797559   -1.6089928 
C     0.0461019   -2.4876766   -0.2467805 
C     1.2020435   -2.1713382    0.7155031 
C     1.4530970   -0.7108983    0.8887218 
C     2.1872297    0.1741392    0.0272025 
C     2.9108481    0.0017076   -1.1587497 
C     3.5043684    1.1002777   -1.7462287 
C     3.3985748    2.3759407   -1.1743126 
C     2.7076757    2.5768813    0.0040104 
C     2.1143405    1.4678706    0.5978899 
N     1.3928499    1.3600544    1.7555308 
C     0.9861201    0.0606840    1.9169137 
C    -1.2153115   -1.8269034    0.3121322 
O    -1.6279136   -2.0835848    1.4308916 
N    -1.8208715   -0.9331024   -0.4945635 
C    -2.9971701   -0.2262755   -0.0908127 
C    -2.6909401    0.9181033    0.8771166 
S    -1.6978871    2.2411492    0.1501709 
C    -3.6982461    0.2635717   -1.3364319 
O    -3.3131198    0.0721669   -2.4569993 
O    -4.8144878    0.9359030   -1.0433726 
H    -0.2848644   -2.4479490   -2.2844907 
H     0.6636775   -1.2082745   -1.7385628 
H    -0.1422577   -3.5638818   -0.1842977 
H     0.9549421   -2.6100906    1.6818688 
H     2.0930575   -2.6749394    0.3347308 
H     3.0001871   -0.9800506   -1.6086961 
H     4.0640323    0.9782550   -2.6653176 
H     3.8712602    3.2185404   -1.6634775 
H     2.6333321    3.5619819    0.4488520 
H     1.0987736    2.1292500    2.3271234 
H     0.3862307   -0.2342002    2.7634354 
H    -1.5036408   -0.8010463   -1.4403033 
H    -3.6680885   -0.9193477    0.4307213 
H    -2.1929476    0.5008245    1.7503251 
H    -3.6200395    1.3868050    1.1994142 
H    -0.6037858    1.4992295   -0.0845426 
H    -5.1926914    1.2362793   -1.8789219 
