30
Energy = -1196.505323182
N    -3.8869962   -1.1059556    1.2041322 
C    -2.8675516   -1.1419648    0.1882007 
C    -3.3447175   -0.3988636   -1.0563108 
S    -3.6118879    1.3756632   -0.8119188 
C    -1.5120555   -0.6278268    0.6880114 
O    -1.3162954   -0.3365326    1.8499797 
N    -0.5173584   -0.5546698   -0.2337222 
C     0.7508065    0.0157286    0.1256851 
C     1.6987174   -0.0770259   -1.0695244 
C     3.1109889    0.4045410   -0.8010821 
C     3.8627793   -0.4794996    0.1540927 
O     3.5065516   -1.5628295    0.5304241 
O     5.0220723    0.0779074    0.5328057 
C     0.5695580    1.4653205    0.5491269 
O    -0.2331950    2.2250372    0.0788638 
O     1.4580958    1.8252304    1.4805961 
H    -3.4779426   -1.3782569    2.0898400 
H    -4.1732625   -0.1392609    1.3263102 
H    -2.7034890   -2.1871871   -0.1097893 
H    -4.3211060   -0.7975758   -1.3335944 
H    -2.6838867   -0.5591324   -1.9092680 
H    -2.3306774    1.7070451   -0.5617378 
H    -0.7411253   -0.6378986   -1.2091463 
H     1.1660266   -0.5333187    0.9710390 
H     1.2758485    0.5001608   -1.8969949 
H     1.7310578   -1.1256833   -1.3718929 
H     3.1424638    1.4269249   -0.4216157 
H     3.6837087    0.4171272   -1.7330331 
H     5.4539584   -0.5491480    1.1261955 
H     1.2887137    2.7519434    1.6931277 
