43
Energy = -1227.350410865
N     0.2233198    1.8962706   -1.1790182 
C     0.2588032    0.6030073   -0.5145620 
C     1.2064345    0.6372288    0.6852886 
C     2.6814808    0.7453678    0.3281014 
C     3.2231361   -0.4866401   -0.3895323 
N     4.6480050   -0.4712775   -0.6042352 
C     5.5310729   -0.6912337    0.4342497 
N     5.2731521   -1.0888785    1.6174950 
N     6.8433351   -0.4235631    0.0696570 
C    -1.1166210    0.2117535    0.0055933 
O    -1.3626925   -0.9426677    0.3363301 
N    -1.9909098    1.2208419    0.0948028 
C    -3.2679189    1.0922658    0.7550412 
C    -4.2645099    0.2675898    0.0199530 
C    -5.4933899    0.5776985   -0.4966661 
N    -6.0583944   -0.5208413   -1.0780891 
C    -5.1833800   -1.4837379   -0.9166028 
N    -4.0851335   -1.0598749   -0.2543809 
C    -3.0470718    0.6683850    2.2142914 
O    -2.0180360    0.8181197    2.8116050 
O    -4.1553122    0.1690780    2.7552035 
H     1.1183594    2.3599762   -1.1237146 
H    -0.0197814    1.8116702   -2.1559918 
H     0.5537824   -0.2158196   -1.1808113 
H     1.0421434   -0.2690353    1.2701456 
H     0.9112828    1.4753033    1.3231978 
H     3.2522581    0.8919600    1.2481533 
H     2.8829006    1.6316128   -0.2855269 
H     2.9707247   -1.3862508    0.1789817 
H     2.7456769   -0.6065159   -1.3646939 
H     4.9755814    0.1942342   -1.2849039 
H     4.2777441   -1.1429299    1.7960209 
H     7.4825397   -0.7251346    0.7877224 
H     7.1024920   -0.7671707   -0.8418715 
H    -1.6310919    2.1216435   -0.1876290 
H    -3.6943449    2.0971888    0.8226741 
H    -5.9993638    1.5308331   -0.4699287 
H    -5.2950245   -2.4996995   -1.2620551 
H    -3.2298754   -1.5533189   -0.0335182 
H    -3.9424746   -0.0776690    3.6639410 
C    -1.0057655   -2.0834049    3.0065640 
O     0.1298865   -1.8707754    2.9777580 
O    -2.1362731   -2.3249018    3.0663473 
