31
Energy = -1342.816294190
N    -2.1784824    0.3994831    1.4228887 
C    -2.4237194   -0.4162129    0.2487008 
C    -3.5129365    0.0872162   -0.6893354 
S    -5.1662694    0.0741758    0.0354488 
C    -1.1406724   -0.6483253   -0.5504178 
O    -1.1553539   -1.1046605   -1.6776943 
N    -0.0111880   -0.3247582    0.1142115 
C     1.2720729   -0.6154023   -0.4293854 
C     2.2386313    0.4859178   -0.1272466 
C     2.0553809    1.7115718    0.4530267 
N     3.2347103    2.4037667    0.4961836 
C     4.1216740    1.6146875   -0.0481162 
N     3.5701957    0.4406784   -0.4447599 
C     1.7865351   -1.9648906    0.0653755 
O     1.2969059   -2.6296814    0.9295102 
O     2.8909122   -2.3376573   -0.6076867 
H    -2.8431611    0.1903482    2.1532001 
H    -2.2477079    1.3862259    1.2082111 
H    -2.7111842   -1.4111759    0.6000547 
H    -3.5654342   -0.5659394   -1.5598998 
H    -3.2767203    1.0892172   -1.0549696 
H    -4.9644597    1.0426715    0.9419443 
H    -0.1279441   -0.0583194    1.0816548 
H     1.1371469   -0.7250385   -1.5124148 
H     1.1368156    2.1323774    0.8280835 
H     5.1697229    1.8338902   -0.1805565 
H     4.0392485   -0.3435367   -0.8629666 
H     3.1664694   -3.1911798   -0.2495750 
C    -0.6942663   -3.5286882    2.8509701 
O    -1.4963220   -2.7925343    2.4570613 
O     0.0853740   -4.2731540    3.2664804 
