38
Energy = -858.3216594017
N     3.3615240    1.6747374    1.0026343 
C     2.1299843    1.1485446    0.4502004 
C     2.4164411    0.5337966   -0.9423361 
O     1.2925703   -0.1230115   -1.4866623 
C     2.8391110    1.6019890   -1.9215038 
C     1.5158366    0.0733781    1.3339763 
O     2.2088469   -0.6617921    2.0205546 
N     0.1773780   -0.0551655    1.2496652 
C    -0.4592990   -1.2328256    1.7590278 
C    -1.9579957   -1.1889862    1.4456566 
C    -2.2662360   -1.2165170   -0.0574171 
C    -3.2865262   -0.1868333   -0.5267901 
C    -2.9064526    1.2611726   -0.2481336 
N    -1.5132088    1.5276384   -0.5864241 
C     0.1541593   -2.4761521    1.1356545 
O     0.6991514   -2.5278115    0.0625212 
O    -0.0389461   -3.5555003    1.8959757 
H     3.8523982    0.9018401    1.4417208 
H     3.1550869    2.3273180    1.7472032 
H     1.4118225    1.9619167    0.3087665 
H     3.2392543   -0.1810701   -0.8015773 
H     1.1396862   -0.9485215   -1.0054436 
H     2.0013052    2.2778019   -2.1134317 
H     3.1332290    1.1488929   -2.8685531 
H     3.6709241    2.1766768   -1.5180719 
H    -0.3390670    0.5263038    0.5795388 
H    -0.3114691   -1.3140690    2.8381837 
H    -2.4446091   -2.0205513    1.9567975 
H    -2.3431862   -0.2758552    1.9054322 
H    -1.3428501   -1.0686337   -0.6205733 
H    -2.6191494   -2.2103512   -0.3413941 
H    -3.4252637   -0.3145606   -1.6053949 
H    -4.2630027   -0.3760851   -0.0705595 
H    -3.0327749    1.4828065    0.8161645 
H    -3.6116717    1.9106083   -0.7823627 
H    -1.2688958    1.1839840   -1.5075875 
H    -1.3200705    2.5197617   -0.5767985 
H     0.3520652   -4.3049749    1.4298413 
