41
Energy = -1084.625229186
N     1.5089517    2.1379370    0.9105668 
C     1.1357106    0.8162730    0.4578292 
C     1.9510963   -0.2570887    1.2041440 
C     3.3905701   -0.2902753    0.7905217 
C     3.8383736   -1.2298196   -0.1341780 
C     5.1543393   -1.2612412   -0.5621699 
C     6.0592850   -0.3354301   -0.0611892 
O     7.3423487   -0.3999188   -0.5018928 
C     5.6329051    0.6097928    0.8638082 
C     4.3121680    0.6285713    1.2810915 
C    -0.3451499    0.5286045    0.6857911 
O    -0.9600592    1.0241107    1.6154889 
N    -0.9146371   -0.3374591   -0.1768572 
C    -2.2635747   -0.7992146    0.0063949 
C    -3.2928129    0.2274811   -0.4966391 
C    -4.6708213    0.0747666    0.1181614 
C    -5.6692973    1.0090280   -0.5335037 
O    -5.6408323    1.2684842   -1.7182732 
N    -6.6221479    1.5033153    0.2935341 
C    -2.3863863   -2.1151810   -0.7219617 
O    -1.5729909   -2.5420085   -1.4974203 
O    -3.5204900   -2.7603218   -0.4298748 
H     1.2270913    2.8345334    0.2339036 
H     0.9831448    2.3348361    1.7564845 
H     1.3603060    0.7311751   -0.6095085 
H     1.5016296   -1.2374521    1.0250700 
H     1.8549507   -0.0545201    2.2744053 
H     3.1412795   -1.9624789   -0.5280133 
H     5.4952648   -1.9984908   -1.2777399 
H     7.8547290    0.2910722   -0.0786081 
H     6.3373250    1.3350403    1.2595879 
H     3.9853521    1.3799444    1.9880095 
H    -0.3783439   -0.7788537   -0.9066328 
H    -2.4334883   -0.9689210    1.0742887 
H    -3.3683451    0.1919025   -1.5848833 
H    -2.8923567    1.2073229   -0.2339919 
H    -4.6230614    0.2426292    1.1975547 
H    -5.0508732   -0.9394481   -0.0302496 
H    -6.6077392    1.3366216    1.2811674 
H    -7.3180748    2.1171915   -0.0907262 
H    -3.5350390   -3.5626105   -0.9673896 
