36
Energy = -1172.505688222
N     1.8530817   -0.3302707    1.8879690 
C     2.0647353    0.1219212    0.5161451 
C     2.4468586   -1.0199647   -0.3567512 
C     3.5952415   -1.2584892   -1.0654950 
N     3.5305317   -2.4668164   -1.6997458 
C     2.3602813   -2.9590790   -1.3772836 
N     1.6666046   -2.1289857   -0.5635721 
C     0.8274285    0.8672200   -0.0149962 
O     0.8797533    1.5557516   -1.0163578 
N    -0.2813282    0.7040906    0.7307279 
C    -1.4617857    1.5016973    0.5504622 
C    -2.3938966    1.0181976   -0.5686593 
C    -2.7483843   -0.4637897   -0.4735200 
C    -1.6219059   -1.3557068   -0.9103627 
O    -1.1730860   -2.2763132   -0.2675710 
O    -1.1786660   -1.0107948   -2.1146807 
C    -2.1823802    1.5544891    1.8793212 
O    -1.8680679    0.9346051    2.8584949 
O    -3.2351766    2.3789157    1.8408978 
H     1.9924748    0.4224432    2.5490648 
H     2.5039765   -1.0678840    2.1175344 
H     2.8730197    0.8556968    0.4143504 
H     4.4568681   -0.6144243   -1.1506603 
H     1.9651506   -3.9102470   -1.6993833 
H     0.7209242   -2.2859217   -0.2260361 
H    -0.1874476    0.1597034    1.5802796 
H    -1.1643514    2.5250876    0.2969011 
H    -1.9013641    1.2147756   -1.5198132 
H    -3.3022751    1.6198683   -0.5363379 
H    -3.0408896   -0.7626669    0.5331354 
H    -3.5908032   -0.6657857   -1.1404814 
H    -0.3831153   -1.5069303   -2.3490200 
H    -3.6444859    2.3566448    2.7148069 
C     2.1636666    0.2588397   -3.4425376 
O     1.3272245   -0.5425284   -3.4813812 
O     3.0004978    1.0531964   -3.4522945 
