31
Energy = -941.8561145180
N     3.2227154    2.0452964   -0.1519979 
C     2.3440452    0.9368396   -0.4740189 
C     2.5529473   -0.2337444    0.4255794 
C     3.3908668   -1.3134493    0.3415084 
N     3.2835527   -2.1004682    1.4526897 
C     2.3888764   -1.5125501    2.2061562 
N     1.9221680   -0.3744589    1.6418298 
C     0.8712619    1.3682434   -0.4993714 
O     0.5349730    2.5326429   -0.4394198 
N    -0.0341738    0.3605087   -0.6186385 
C    -1.4145727    0.6449462   -0.3848255 
C    -2.2672056   -0.4920984   -0.8438716 
C    -1.9669026   -1.6237032   -1.5531568 
N    -3.0944920   -2.3669505   -1.7677322 
C    -4.0649875   -1.7016835   -1.2019799 
N    -3.6186085   -0.5565488   -0.6284377 
C    -1.6484542    0.9615654    1.0946038 
O    -0.8595890    0.7919646    1.9817861 
O    -2.8730031    1.4642103    1.2975259 
H     3.3697805    2.0845890    0.8477319 
H     2.7587408    2.9093520   -0.4124892 
H     2.5669274    0.5973830   -1.4943309 
H     4.0739478   -1.5494465   -0.4596484 
H     2.0366438   -1.8681498    3.1620790 
H     1.1363770    0.1729843    1.9682922 
H     0.2852424   -0.5794881   -0.4460048 
H    -1.6694475    1.5623350   -0.9261210 
H    -1.0076505   -1.9330632   -1.9361603 
H    -5.1026074   -1.9956479   -1.1721400 
H    -4.1589852    0.1182416   -0.1159655 
H    -2.9582866    1.6503484    2.2416277 
