36
Energy = -765.8799468830
N    -1.5374078    0.0443406   -2.2997482 
C    -1.0450621    0.3998492   -0.9792525 
C    -2.1495116    1.1303840   -0.1927343 
C    -3.3919260    0.2914472    0.0595299 
C    -1.6268689    1.8211828    1.0699961 
C    -1.2654770    0.9207648    2.2425102 
C    -0.5616305   -0.8882918   -0.3164248 
O    -1.2954173   -1.8392877   -0.1380409 
N     0.7470431   -0.9518794    0.0581592 
C     1.7652764    0.0530533   -0.1178570 
C     2.9694997   -0.5272179    0.6406096 
C     2.7782266   -2.0297254    0.4853064 
C     1.2724785   -2.1971333    0.6038372 
C     2.1058960    0.2821265   -1.5798025 
O     1.7580062   -0.4010339   -2.5019470 
O     2.8792994    1.3697897   -1.7235301 
H    -0.8264683   -0.4544670   -2.8195887 
H    -1.7588991    0.8849882   -2.8171986 
H    -0.2066072    1.1089047   -1.0302689 
H    -2.4443513    1.9440778   -0.8702889 
H    -3.1975656   -0.5266973    0.7505431 
H    -4.1853006    0.9193080    0.4730769 
H    -3.7429064   -0.1529661   -0.8707389 
H    -2.3965408    2.5258026    1.3998897 
H    -0.7592567    2.4357177    0.8015546 
H    -0.4502783    0.2358343    2.0052057 
H    -2.1155499    0.3157065    2.5593122 
H    -0.9512449    1.5212075    3.0985303 
H     1.4802649    1.0179323    0.3065510 
H     2.8886237   -0.2380567    1.6902502 
H     3.9183322   -0.1518264    0.2603968 
H     3.3249976   -2.6052607    1.2311378 
H     3.1121925   -2.3519680   -0.5032496 
H     0.8745263   -3.0417552    0.0434536 
H     0.9538617   -2.3169046    1.6448355 
H     3.0798456    1.4521537   -2.6640149 
