36
Energy = -765.8837036762
N     3.3978233    1.4360303   -0.2173831 
C     2.4110193    0.4428128   -0.5745688 
C     2.9806805   -0.8241135    0.0649163 
C     4.5071008   -0.6028462    0.0123490 
C     4.6711459    0.8230714   -0.5318321 
C     1.0245456    0.9112358   -0.1820203 
O     0.6855020    2.0673394   -0.3474553 
N     0.1913944   -0.0464059    0.2879939 
C    -1.1497654    0.2410760    0.7288160 
C    -2.2127581   -0.3462373   -0.2225426 
C    -2.0468518    0.2658655   -1.6043594 
C    -3.6243496   -0.1564406    0.3275212 
C    -4.7093603   -0.7662789   -0.5441300 
C    -1.2938174   -0.3408243    2.1177926 
O    -0.8620088   -1.4169910    2.4381239 
O    -1.9573140    0.4586377    2.9581415 
H     3.2262147    2.3251743   -0.6641469 
H     2.3582980    0.2840601   -1.6704190 
H     2.6495549   -0.9019479    1.1022977 
H     2.6699840   -1.7281736   -0.4601726 
H     4.9375757   -0.6878766    1.0096341 
H     5.0082880   -1.3324944   -0.6234883 
H     4.8673334    0.7854698   -1.6162097 
H     5.4934556    1.3647213   -0.0620192 
H     0.5552727   -0.9570673    0.5130551 
H    -1.2537977    1.3261581    0.7681621 
H    -2.0140687   -1.4238905   -0.2851989 
H    -2.2905821    1.3307733   -1.5868011 
H    -2.6976729   -0.2228845   -2.3291805 
H    -1.0217690    0.1666778   -1.9602015 
H    -3.6902040   -0.6011739    1.3240483 
H    -3.8131062    0.9144100    0.4616021 
H    -5.6836161   -0.6894119   -0.0588720 
H    -4.7859890   -0.2679198   -1.5111412 
H    -4.5145034   -1.8257688   -0.7294253 
H    -2.0135541   -0.0048668    3.8040138 
