35
Energy = -1026.190288065
N     2.1380530    0.5934381    1.3793584 
C     1.7400915    1.0536623    0.0690935 
C     2.5174471    0.3295751   -1.0434006 
C     2.2410336   -1.1678626   -1.0442115 
C     4.0054816    0.6197124   -0.9468563 
C     0.2490024    1.0081187   -0.2694370 
O    -0.1757526    1.4320332   -1.3321605 
N    -0.5642474    0.4736173    0.6623485 
C    -1.9832033    0.4095469    0.4749688 
C    -2.3782061   -0.7939750   -0.3986394 
C    -3.8169384   -0.8208880   -0.8273668 
O    -4.5615870   -1.7516478   -0.6943151 
O    -4.1793105    0.3253200   -1.4259968 
C    -2.6222230    0.3141619    1.8405247 
O    -2.0173542    0.1281893    2.8624991 
O    -3.9483495    0.4302059    1.7764981 
H     1.9316148   -0.3801695    1.5456538 
H     1.7756732    1.1555655    2.1339701 
H     2.0020662    2.1146845    0.0000244 
H     2.1368771    0.7469517   -1.9789280 
H     2.7349641   -1.6435816   -1.8929936 
H     2.6288454   -1.6486641   -0.1418128 
H     1.1736703   -1.3868213   -1.1226450 
H     4.2041703    1.6913735   -1.0176113 
H     4.5456799    0.1237390   -1.7557206 
H     4.4092865    0.2668645    0.0032603 
H    -0.2055126    0.2053343    1.5639281 
H    -2.3271588    1.3196016   -0.0229803 
H    -1.7677661   -0.7322628   -1.3022089 
H    -2.1569905   -1.7304724    0.1109887 
H    -5.1056355    0.2278178   -1.6776311 
H    -4.2978274    0.2962888    2.6664764 
C    -0.5118369    0.4956895   -3.9370700 
O    -0.2850297    1.5285136   -4.4002382 
O    -0.7417266   -0.5599562   -3.5169840 
