34
Energy = -1005.112162393
N    -2.6553206   -1.1555802    0.2711831 
C    -2.3057983   -0.4800472   -0.9510914 
C    -3.1259916    0.8077887   -0.8434668 
C    -3.0262556    1.1466271    0.6422384 
C    -2.9884268   -0.2188570    1.3386359 
C    -0.8363153   -0.1363775   -1.1718900 
O    -0.4237737    0.2593428   -2.2476766 
N    -0.0163116   -0.2729352   -0.1063933 
C     1.3842655    0.0227775   -0.2269484 
C     2.0564688   -0.1345881    1.1377327 
C     3.3910941    0.5534222    1.3963166 
O     3.7680119    0.6832957    2.5430587 
N     4.0823755    1.0038265    0.3317941 
C     2.0593683   -0.8421344   -1.2784070 
O     3.0120086   -0.4783541   -1.9216819 
O     1.5428694   -2.0638001   -1.3775938 
H    -2.1455791   -1.9875604    0.5127464 
H    -2.5998020   -1.0606092   -1.8295950 
H    -2.7501172    1.5918220   -1.4985231 
H    -4.1574345    0.5873875   -1.1224334 
H    -2.1023948    1.6950669    0.8356372 
H    -3.8522370    1.7663091    0.9890289 
H    -3.9582840   -0.4735664    1.7774956 
H    -2.2600971   -0.2186965    2.1591558 
H    -0.3745632   -0.6864005    0.7357948 
H     1.5012539    1.0485611   -0.5834774 
H     2.1850338   -1.1919334    1.3860247 
H     1.3868498    0.2799299    1.8937967 
H     3.8469715    0.7455821   -0.6162632 
H     4.9821033    1.4113764    0.5174326 
H     2.0394117   -2.5251220   -2.0654074 
C     1.6368465    1.6925241   -3.6563370 
O     1.5345290    0.9876905   -4.5654884 
O     1.7623701    2.4253690   -2.7678237 
