34
Energy = -1124.670311502
N    -2.8249709    1.6718429   -0.3276208 
C    -2.1654146    0.4626508    0.1101936 
C    -2.9795399   -0.6243021   -0.5924172 
C    -4.3952850   -0.0168509   -0.6825956 
C    -4.2372611    1.4109526   -0.1419064 
C    -0.6768404    0.5502289   -0.1496468 
O    -0.0582740    1.5787268    0.0636713 
N    -0.0742687   -0.5809724   -0.5701296 
C     1.3381026   -0.6166563   -0.8329346 
C     2.1580076   -0.6903118    0.4688409 
C     3.6091498   -0.2749473    0.3181012 
S     4.5030945   -0.2090193    1.8809597 
C     3.7462935    1.2386921    2.6306270 
C     1.5948757   -1.7999088   -1.7313424 
O     0.7936751   -2.6664806   -1.9627038 
O     2.8317512   -1.7991497   -2.2377769 
H    -2.4748099    2.4924903    0.1452665 
H    -2.2563506    0.3116457    1.2044680 
H    -2.5831279   -0.8001601   -1.5940708 
H    -2.9617792   -1.5698802   -0.0494527 
H    -5.1252830   -0.5833539   -0.1047398 
H    -4.7371300   -0.0027400   -1.7170497 
H    -4.5376134    1.4408684    0.9185309 
H    -4.8443073    2.1391350   -0.6818145 
H    -0.6054783   -1.3975988   -0.8241398 
H     1.6249566    0.2969640   -1.3634134 
H     2.0902569   -1.6930260    0.8977164 
H     1.6593043   -0.0078286    1.1570453 
H     3.6779637    0.7028169   -0.1672710 
H     4.1651050   -0.9796899   -0.3000625 
H     2.6895682    1.0860180    2.8477593 
H     4.2708692    1.4148367    3.5691942 
H     3.8660261    2.1140922    1.9912833 
H     2.9187342   -2.5988846   -2.7719695 
