23
Energy = -719.8719046863
N     2.7902696   -0.1879859    0.7596087 
C     2.7138163   -0.5502876   -0.6424696 
C     1.3193994   -0.3551827   -1.2083555 
O     0.9491745   -0.9089188   -2.2275284 
N     0.5407114    0.4786378   -0.4900575 
C    -0.8576161    0.5839618   -0.7534314 
C    -1.6205222   -0.7191098   -0.4072811 
C    -1.4135171   -1.0915755    1.0306393 
O    -0.4555763   -1.6722397    1.4662791 
O    -2.4138510   -0.6565717    1.8156860 
C    -1.4193419    1.7510514    0.0240274 
O    -0.8548979    2.3113399    0.9220022 
O    -2.6484946    2.0713536   -0.3935086 
H     2.3787591   -0.9078045    1.3395212 
H     3.7452072   -0.0549387    1.0566501 
H     2.9912671   -1.5832389   -0.8785346 
H     3.3828504    0.0959852   -1.2169875 
H     0.9138495    0.8287847    0.3824368 
H    -1.0197324    0.7613224   -1.8190377 
H    -2.6790477   -0.5898549   -0.6247891 
H    -1.1999084   -1.5024206   -1.0354261 
H    -2.1764735   -0.8842448    2.7235284 
H    -2.9664253    2.7819376    0.1770278 
