
 statpt (clr0832) : TURBOMOLE V7.2 ( 21454 ) 2 Oct 2017 at 16:43:05
 Copyright (C) 2017 TURBOMOLE GmbH, Karlsruhe


    2023-06-04 03:47:12.023 



                           this is S T A T P T   


                     hessian and coordinate update for
                          stationary point search 

                     by barbara unterreiner, marek sierka,
                           and reinhart ahlrichs

                          quantum chemistry group
                          universitaet  karlsruhe
                                  germany




              +--------------------------------------------------+
              | Atomic coordinate, charge and isotop information |
              +--------------------------------------------------+

                    atomic coordinates            atom    charge  isotop
          1.19000748    3.83282559   -3.48829084    n      7.000     0
          1.08530990    1.36593405   -4.69221940    c      6.000     0
          3.63406615   -0.01935922   -4.88035141    c      6.000     0
          4.88401835   -0.33782821   -2.35575948    c      6.000     0
          4.22119282   -2.31727583   -0.75081479    c      6.000     0
          5.29234386   -2.55032139    1.62477895    c      6.000     0
          7.06442992   -0.79733290    2.45401836    c      6.000     0
          8.16896348   -0.93586815    4.76312295    o      8.000     0
          7.76480281    1.17875631    0.87756271    c      6.000     0
          6.67767483    1.38725029   -1.49459887    c      6.000     0
         -0.86289738   -0.35364678   -3.42337960    c      6.000     0
         -1.03457577   -2.58400560   -3.97938969    o      8.000     0
         -2.32885139    0.80924788   -1.70673908    n      7.000     0
         -4.27859948   -0.48125616   -0.31999207    c      6.000     0
         -4.13097545    0.09240929    2.52639610    c      6.000     0
         -1.55934250   -0.73984909    3.51229823    c      6.000     0
         -6.24077507   -1.19702956    4.03615447    c      6.000     0
         -8.76116952    0.18317480    4.13144974    c      6.000     0
         -6.83569582    0.12152751   -1.45762233    c      6.000     0
         -8.36908187   -1.41449390   -2.11645798    o      8.000     0
         -7.21823919    2.62181503   -1.66550468    o      8.000     0
          2.47499385    3.81834559   -2.06696336    h      1.000     0
          1.72699309    5.17896879   -4.72865546    h      1.000     0
          0.36389697    1.62746044   -6.61323389    h      1.000     0
          4.86210709    1.06330157   -6.13857696    h      1.000     0
          3.29067246   -1.85317281   -5.75492475    h      1.000     0
          2.83375421   -3.68765760   -1.37408091    h      1.000     0
          4.74750907   -4.10774374    2.84407370    h      1.000     0
          7.54440669   -2.39502453    5.63737316    h      1.000     0
          9.16680739    2.52043224    1.52477837    h      1.000     0
          7.26556579    2.92092404   -2.72246854    h      1.000     0
         -2.05305545    2.69126693   -1.52736680    h      1.000     0
         -3.98691015   -2.50063276   -0.61010696    h      1.000     0
         -4.30975378    2.14381236    2.76724530    h      1.000     0
         -1.34912706   -0.20702147    5.49345822    h      1.000     0
         -0.00498772    0.09709133    2.45309759    h      1.000     0
         -1.37149082   -2.79363411    3.38223885    h      1.000     0
         -6.51149476   -3.11707503    3.31226338    h      1.000     0
         -5.55608448   -1.41614057    5.97347854    h      1.000     0
         -9.72209409    0.22243762    2.31172644    h      1.000     0
        -10.03488412   -0.74817869    5.45954806    h      1.000     0
         -8.51153640    2.13228177    4.76596138    h      1.000     0
         -8.85819993    2.84626956   -2.43080593    h      1.000     0
         -5.49349857   -5.68421971   -4.79373521    c      6.000     0
         -5.17632186   -6.78556690   -2.93047955    o      8.000     0
         -5.84561246   -4.64189432   -6.68070179    o      8.000     0
 
       center of nuclear mass  :   -0.93424930   -0.80458474   -0.95335466
       center of nuclear charge:   -0.92776918   -0.74379825   -0.86287402
  Keyword $statpt not found - using default options
 
        ***************  Stationary point options ******************
        ************************************************************
           Maximum allowed trust radius:           3.000000E-01
           Minimum allowed trust radius:           1.000000E-03
           Initial trust radius:                   1.500000E-01
           GDIIS used if gradient norm <           1.000000E-02
           Number of previous steps for GDIIS:       5
           Hessian update method:                  BFGS
                        *** Convergence criteria ***                
           Threshold for energy change:            1.000000E-06
           Threshold for max displacement element: 1.000000E-03
           Threshold for max gradient element :    1.000000E-03
           Threshold for RMS of displacement:      5.000000E-04
           Threshold for RMS of gradient:          5.000000E-04
        ************************************************************
 

 keyword $statp missing in file <control>

  Keyword $statpt not found - using default options
