40
Energy = -967.7492513250
N    -2.4283528    1.4042561    1.1701324 
C    -2.8926756    0.3831809    0.2310471 
C    -2.9950385    1.0102910   -1.1598654 
O    -1.7641271    1.6405386   -1.4829096 
C    -4.1494066    1.9877601   -1.2638503 
C    -1.9229789   -0.7919398    0.3495180 
O    -1.9711116   -1.5186928    1.3263760 
N    -1.0317397   -0.9446871   -0.6448806 
C    -0.0533027   -1.9995909   -0.6240122 
C     0.9803997   -1.8652781    0.4993199 
C     1.6010193   -0.4804110    0.5857409 
C     2.3324706   -0.0541967   -0.6790181 
N     3.0214267    1.2104904   -0.5577288 
C     4.2102504    1.2714148    0.1283471 
N     4.7859422    0.2097979    0.5415029 
N     4.6462222    2.5803224    0.3098071 
C    -0.7629040   -3.3472387   -0.6604581 
O    -1.8490699   -3.5372348   -1.1281817 
O     0.0046088   -4.3323191   -0.1733410 
H    -2.0849938    0.9540793    2.0093727 
H    -3.1909029    2.0056018    1.4516877 
H    -3.8683416   -0.0372997    0.5029233 
H    -3.1383815    0.2104382   -1.8917953 
H    -1.4883215    2.0564749   -0.6522921 
H    -4.1826025    2.4162436   -2.2654883 
H    -5.1020065    1.4910355   -1.0673420 
H    -4.0325802    2.8114345   -0.5555150 
H    -0.9717604   -0.2087987   -1.3326029 
H     0.4689825   -1.9511138   -1.5854689 
H     1.7611723   -2.6094768    0.3317490 
H     0.4995968   -2.1111661    1.4455136 
H     2.3224700   -0.4729135    1.4046052 
H     0.8302955    0.2592490    0.8268758 
H     3.0819967   -0.8037839   -0.9378426 
H     1.6432193    0.0342825   -1.5237206 
H     2.4305044    2.0169929   -0.4409601 
H     5.6993525    0.4128616    0.9303405 
H     4.4747329    3.1928019   -0.4723095 
H     5.5912825    2.6526589    0.6462914 
H    -0.5052472   -5.1459653   -0.2694675 
