38
Energy = -767.1008874438
N    -2.1535051   -0.5303170   -2.2048120 
C    -1.5159673    0.0463356   -1.0410622 
C    -2.4110624   -0.0838622    0.2102928 
C    -2.7107761   -1.5416886    0.5261777 
C    -3.7040020    0.7098705    0.0518345 
C    -3.5146509    2.2120446   -0.0684665 
C    -0.1515383   -0.5844436   -0.7643295 
O     0.1719149   -1.6596064   -1.2343732 
N     0.6560868    0.1347978    0.0506541 
C     1.8920567   -0.3829649    0.5789570 
C     3.1239859    0.3239947   -0.0225789 
C     3.1473601    0.1233616   -1.5293396 
C     4.4240149   -0.1546412    0.6060142 
C     1.8504456   -0.1991650    2.0796600 
O     1.3681596    0.7601294    2.6223266 
O     2.4163736   -1.2078903    2.7485602 
H    -1.7763669   -0.1159823   -3.0460930 
H    -1.9010512   -1.5118313   -2.2490078 
H    -1.3563861    1.1127212   -1.2246523 
H    -1.8554834    0.3442047    1.0544998 
H    -3.2963043   -1.9930061   -0.2776149 
H    -3.2946462   -1.6186689    1.4450473 
H    -1.8013633   -2.1321096    0.6519474 
H    -4.3353202    0.4961368    0.9199123 
H    -4.2334288    0.3278415   -0.8248093 
H    -3.0030131    2.4881037   -0.9928880 
H    -2.9316674    2.6082880    0.7679183 
H    -4.4763970    2.7279175   -0.0716734 
H     0.2983849    0.9676900    0.4896979 
H     1.9336446   -1.4461365    0.3367067 
H     3.0045615    1.3929277    0.1901337 
H     3.9808167    0.6735154   -1.9697260 
H     2.2262475    0.4705788   -1.9967354 
H     3.2675729   -0.9337340   -1.7765999 
H     4.4811040    0.0680847    1.6721521 
H     4.5417430   -1.2342508    0.4838248 
H     5.2724583    0.3300571    0.1206049 
H     2.3659988   -0.9881025    3.6880397 
