38
Energy = -916.2837172640
N    -1.9379315   -0.1077532   -1.8217813 
C    -1.6166711    0.3717626   -0.4963297 
C    -2.0964572   -0.6079432    0.5868790 
C    -1.4557914   -1.9802826    0.4196397 
C    -3.6197978   -0.6765371    0.6140648 
C    -4.1781521   -1.5180935    1.7490391 
C    -0.1600133    0.7465415   -0.2094955 
O     0.1539351    1.2877945    0.8363128 
N     0.7410887    0.4278886   -1.1649218 
C     2.1012289    0.8915226   -1.1159445 
C     3.0763510   -0.1412238   -0.5348482 
C     2.7419163   -0.5219763    0.8932822 
C     2.9405735    0.6099104    1.8607306 
O     3.5049619    1.6425791    1.6166476 
O     2.4460219    0.3188058    3.0705233 
C     2.5127217    1.2552683   -2.5217879 
O     1.8657837    1.0093457   -3.5068068 
O     3.6990955    1.8638032   -2.5605780 
H    -1.7468049    0.5652271   -2.5487121 
H    -1.4946847   -0.9859394   -2.0475864 
H    -2.1640322    1.3073912   -0.3425442 
H    -1.7526911   -0.1829017    1.5346331 
H    -1.6500845   -2.6113623    1.2866107 
H    -1.8533162   -2.5036140   -0.4547495 
H    -0.3710333   -1.9081879    0.3092042 
H    -3.9763874   -1.0544509   -0.3479905 
H    -4.0060644    0.3442095    0.7011013 
H    -5.2676692   -1.4599580    1.7778684 
H    -3.9130892   -2.5718413    1.6448510 
H    -3.8023911   -1.1756830    2.7169105 
H     0.4049023    0.1302476   -2.0669258 
H     2.1473356    1.7879327   -0.4910654 
H     3.0559256   -1.0374173   -1.1608353 
H     4.0824100    0.2768802   -0.5771289 
H     1.7166774   -0.8796965    0.9929684 
H     3.3841589   -1.3437830    1.2241788 
H     2.5901423    1.0963402    3.6232503 
H     3.8979325    2.0416944   -3.4882639 
