38
Energy = -1140.392166873
N    -0.5251625   -2.0873846   -1.0074378 
C    -0.1055434   -0.8165329   -0.4604899 
C    -0.8943640   -0.4970455    0.8241929 
C    -2.3442314   -0.2220047    0.5673949 
C    -2.8039243    1.0841541    0.4249912 
C    -4.1322996    1.3638429    0.1552418 
C    -5.0383145    0.3204727    0.0215684 
O    -6.3338318    0.6344429   -0.2396106 
C    -4.6002025   -0.9905660    0.1611190 
C    -3.2667930   -1.2529957    0.4295334 
C     1.3795098   -0.8102265   -0.1103098 
O     1.9603156   -1.8216668    0.2392483 
N     1.9966646    0.3929614   -0.1718059 
C     3.3472314    0.5533384    0.2823496 
C     4.3617351    0.1378364   -0.8055859 
O     5.6617684   -0.0415544   -0.3265517 
C     3.5482426    1.9854488    0.6946911 
O     2.7410564    2.8679976    0.5734757 
O     4.7765383    2.2016932    1.1906720 
H    -0.0108674   -2.8189196   -0.5270370 
H    -0.2697591   -2.1536885   -1.9833913 
H    -0.3123139   -0.0278330   -1.1891301 
H    -0.4411301    0.3684441    1.3149695 
H    -0.7739816   -1.3466409    1.5020604 
H    -2.1039484    1.9060482    0.5285733 
H    -4.4826212    2.3827988    0.0503462 
H    -6.8452349   -0.1738005   -0.3061258 
H    -5.3048903   -1.8101366    0.0589143 
H    -2.9328143   -2.2784609    0.5202796 
H     1.4702734    1.2230244   -0.3946624 
H     3.5278200   -0.0986390    1.1430137 
H     4.0245268   -0.8285787   -1.1782523 
H     4.3163247    0.8591539   -1.6336355 
H     5.9581929    0.7754877    0.0799343 
H     4.8377092    3.1433712    1.3977015 
C     0.3845879    3.9730646   -0.6723215 
O     0.0894020    2.8900521   -0.9644350 
O     0.6551756    5.0593269   -0.3949918 
