34
Energy = -947.1761674132
N    -3.1221779   -0.3472555   -1.8924987 
C    -2.2739686    0.3836235   -0.9677591 
C    -2.9808206    0.5951223    0.3774136 
C    -4.1266250    1.5936955    0.3491316 
O    -4.2482291    2.4402247    1.2121955 
N    -4.9831372    1.4459175   -0.6821411 
C    -0.9682615   -0.3557474   -0.6948146 
O    -0.8858410   -1.5654697   -0.7853883 
N     0.0819823    0.4133385   -0.3220758 
C     1.2770889   -0.2029504    0.1844881 
C     2.3443023    0.8663210    0.4190068 
C     3.7160472    0.3146943    0.7871751 
C     4.3025443   -0.4690638   -0.3716442 
O     4.6963561    0.0861262   -1.3759631 
N     4.3426004   -1.8133070   -0.2074869 
C     0.9645908   -0.9484134    1.4739871 
O     0.1322829   -0.6228613    2.2695518 
O     1.7665489   -2.0155706    1.6542988 
H    -2.7380747   -0.2967240   -2.8276409 
H    -3.0878971   -1.3287713   -1.6333538 
H    -2.0480909    1.3616559   -1.4044002 
H    -2.2811121    0.9470566    1.1343770 
H    -3.3599585   -0.3719406    0.7224386 
H    -4.7702339    0.7690235   -1.4044573 
H    -5.7435126    2.0958904   -0.7685263 
H    -0.0844627    1.3788493   -0.0937204 
H     1.6290994   -0.9324164   -0.5471551 
H     1.9969981    1.5458427    1.2027412 
H     2.4401828    1.4417380   -0.5044862 
H     4.3903072    1.1515660    0.9705753 
H     3.6713422   -0.2846548    1.6973691 
H     4.6223512   -2.3706879   -0.9961000 
H     3.8241994   -2.2518381    0.5328035 
H     1.5036791   -2.4181138    2.4921585 
