37
Energy = -1065.209115458
N    -0.6774063   -0.4571486    1.7179058 
C    -0.4676084   -0.8517007    0.3477083 
C    -1.0932613    0.1766318   -0.6044070 
C    -2.5902580    0.1985363   -0.5385200 
C    -3.2694427    1.0833498    0.2912144 
C    -4.6543043    1.0718734    0.3609574 
C    -5.3826603    0.1701680   -0.4002933 
C    -4.7163696   -0.7174256   -1.2328127 
C    -3.3320932   -0.7003094   -1.2998761 
C     0.9707467   -1.1050044   -0.1111452 
O     1.2130010   -1.5879498   -1.2049891 
N     1.9403452   -0.7542913    0.7554790 
C     3.3244958   -0.9051217    0.4262203 
C     3.8377789    0.1988381   -0.4906353 
O     3.7904713    1.4117494    0.2325576 
C     4.1251935   -0.9290890    1.7073570 
O     3.6784750   -0.7033239    2.7995880 
O     5.4084655   -1.2196041    1.4838614 
H    -0.2799285    0.4448221    1.9397022 
H    -0.3598132   -1.1419442    2.3870194 
H    -0.9803645   -1.8046899    0.1837565 
H    -0.6875507    1.1638293   -0.3585306 
H    -0.7659560   -0.0685158   -1.6155256 
H    -2.7053829    1.7863687    0.8930469 
H    -5.1663380    1.7689110    1.0135780 
H    -6.4645805    0.1610330   -0.3478353 
H    -5.2766951   -1.4219095   -1.8358725 
H    -2.8144094   -1.3927830   -1.9555125 
H     1.7078090   -0.3576831    1.6503191 
H     3.4678576   -1.8532144   -0.1007060 
H     3.1920527    0.2217492   -1.3726416 
H     4.8599137   -0.0426519   -0.7989677 
H     4.0804025    2.1260121   -0.3344941 
H     5.8624434   -1.1748182    2.3345910 
C     2.7867460    2.1687779    2.9777088 
O     1.7037286    1.8222780    2.7539486 
O     3.8515919    2.5414723    3.2208008 
