35
Energy = -877.0006970814
N    -1.5657799   -2.0071976   -0.2674958 
C    -1.7338461   -0.6647100   -0.7987094 
C    -2.4404026    0.2391367    0.2057113 
C    -3.9204686   -0.0980167    0.3711738 
C    -4.5907186    0.8059042    1.3644108 
O    -5.4373407    1.6179467    1.1135775 
O    -4.1201047    0.6128444    2.6113552 
C    -0.3907151   -0.0162149   -1.1390581 
O    -0.3410485    0.9992579   -1.8083177 
N     0.6771019   -0.6397976   -0.6110563 
C     2.0248031   -0.1881142   -0.8155996 
C     2.6339719    0.4256323    0.4615855 
C     1.8067550    1.6197181    0.9100329 
C     4.0893495    0.8208496    0.2617960 
C     2.8470854   -1.3737418   -1.2714497 
O     2.7493562   -2.4789495   -0.8094698 
O     3.7165619   -1.0621505   -2.2398947 
H    -1.5082416   -2.6973264   -1.0029399 
H    -2.3294458   -2.2704667    0.3376281 
H    -2.3025583   -0.6393734   -1.7370270 
H    -2.3411688    1.2671604   -0.1464443 
H    -1.9300954    0.1660477    1.1699959 
H    -4.4457906    0.0112048   -0.5768297 
H    -4.0507181   -1.1262150    0.7213657 
H    -4.5829952    1.2389718    3.1813939 
H     0.4984950   -1.4938919   -0.1004147 
H     1.9997785    0.5678595   -1.6023837 
H     2.5847293   -0.3502965    1.2344517 
H     0.7648278    1.3489175    1.0799153 
H     1.8264641    2.4098871    0.1561457 
H     2.2063022    2.0264229    1.8407603 
H     4.1889146    1.5413406   -0.5539260 
H     4.7265066   -0.0340426    0.0313415 
H     4.4774903    1.2875256    1.1684574 
H     4.2128455   -1.8661224   -2.4412820 
