36
Energy = -990.0331060009
N    -3.7893343    1.4900037   -0.4133441 
C    -3.6412050    0.1605851    0.1667192 
C    -4.6516995   -0.8709569   -0.3075256 
C    -2.2173875   -0.3561858   -0.0308072 
O    -1.9222041   -1.5319413    0.0933394 
N    -1.3093263    0.5955167   -0.3151333 
C     0.0744174    0.2640184   -0.5233808 
C     0.8090495   -0.0515403    0.7861636 
C     2.3021430    0.0916967    0.7027449 
C     2.8756762    1.3438680    0.4948727 
C     4.2511746    1.4977125    0.4257490 
C     5.0804991    0.3950373    0.5702995 
C     4.5222067   -0.8560579    0.7845063 
C     3.1448003   -1.0043559    0.8472578 
C     0.1644585   -0.8178373   -1.5983208 
O    -0.4394480   -0.7677651   -2.6357833 
O     1.0292409   -1.7894521   -1.3119708 
H    -4.5839935    1.9667270   -0.0117220 
H    -3.9550128    1.4140253   -1.4097192 
H    -3.7383401    0.2725419    1.2529777 
H    -5.6627954   -0.5581092   -0.0412088 
H    -4.4486979   -1.8422883    0.1412429 
H    -4.5980844   -0.9818856   -1.3923454 
H    -1.6710048    1.5235427   -0.4716278 
H     0.5433060    1.1395129   -0.9821204 
H     0.4254799    0.6548425    1.5266605 
H     0.5294701   -1.0498415    1.1197581 
H     2.2366522    2.2160525    0.3974014 
H     4.6767360    2.4812069    0.2661527 
H     6.1561357    0.5117894    0.5198626 
H     5.1621147   -1.7224737    0.9017430 
H     2.7111925   -1.9848640    1.0026746 
H     1.0194191   -2.3965419   -2.0622629 
C    -2.6635312   -0.2324459   -4.2620249 
O    -3.2169034    0.3471112   -3.4246451 
O    -2.1507180   -0.8002292   -5.1257094 
