40
Energy = -822.4129981223
N     0.6622941   -2.1320147   -0.1878943 
C     0.6623518   -1.1264123    0.8509408 
C     1.5658387    0.0404255    0.4582123 
C     3.0275618   -0.3445257    0.3167071 
C     3.9033042    0.8187079   -0.1160217 
C     5.3728585    0.4411811   -0.2454333 
N     6.2735552    1.5043568   -0.6569191 
C    -0.6879772   -0.5580192    1.2929133 
O    -0.7866366    0.1060186    2.3078327 
N    -1.7336422   -0.8126835    0.4712987 
C    -3.0799810   -0.4702915    0.8320498 
C    -3.6229659    0.7718781    0.0924908 
C    -2.7940030    1.9963555    0.4426471 
C    -3.6757804    0.5531006   -1.4115700 
C    -3.9572832   -1.6710556    0.5733515 
O    -3.6130020   -2.6605799   -0.0179934 
O    -5.1928766   -1.5055304    1.0569803 
H     0.3997507   -1.7649298   -1.0918778 
H     0.0991998   -2.9408074    0.0300842 
H     1.0752677   -1.5789132    1.7585745 
H     1.4524728    0.8219824    1.2123874 
H     1.1987655    0.4613085   -0.4873891 
H     3.3859828   -0.7327995    1.2770533 
H     3.1211697   -1.1673656   -0.3971173 
H     3.8066400    1.6427465    0.6012024 
H     3.5489500    1.2084417   -1.0783356 
H     5.4725063   -0.3818823   -0.9603838 
H     5.7301058    0.0485260    0.7120092 
H     5.9913905    1.8770389   -1.5546818 
H     6.2316276    2.2741830   -0.0011147 
H    -1.6216517   -1.5281086   -0.2280886 
H    -3.0894241   -0.2551860    1.9046891 
H    -4.6413857    0.9202088    0.4628223 
H    -3.2157067    2.8846836   -0.0312875 
H    -2.7537150    2.1606244    1.5197110 
H    -1.7669594    1.8834873    0.0896241 
H    -4.3010508   -0.2995146   -1.6865202 
H    -4.0803954    1.4354929   -1.9095177 
H    -2.6738460    0.3796755   -1.8117834 
H    -5.6931104   -2.3000039    0.8325477 
