41
Energy = -1104.760091525
N     2.4345258    1.3471300    0.6384303 
C     2.2746659    0.1813287   -0.2104847 
C     2.8829306   -1.1172858    0.3191449 
C     4.3627773   -0.9944433    0.6910920 
C     5.1738948   -0.4698836   -0.4552104 
O     5.3573289    0.6973198   -0.6914023 
O     5.6541409   -1.4450754   -1.2392224 
C     0.8115261   -0.0634376   -0.5725225 
O     0.4503151   -1.0987494   -1.1137991 
N    -0.0180585    0.9444152   -0.2754995 
C    -1.4194701    0.8860788   -0.5913175 
C    -2.1862059    0.0802541    0.4709540 
C    -3.6544067   -0.2246850    0.1927303 
C    -4.2158828   -1.0365771    1.3522746 
C    -3.8473659   -0.9678334   -1.1221185 
C    -1.9293945    2.3020456   -0.6777001 
O    -1.4274711    3.2439117   -0.1255194 
O    -3.0356688    2.4007233   -1.4250354 
H     2.3127466    1.1122959    1.6152877 
H     3.3599583    1.7380310    0.5242924 
H     2.7539131    0.4226301   -1.1653073 
H     2.3356589   -1.4303407    1.2142830 
H     2.7371838   -1.9021253   -0.4229902 
H     4.4888618   -0.2939296    1.5169260 
H     4.7416145   -1.9692639    0.9970342 
H     6.1192575   -1.0162759   -1.9687785 
H     0.3773713    1.7783946    0.1377987 
H    -1.5387259    0.3983435   -1.5602434 
H    -1.6466885   -0.8659036    0.5634074 
H    -2.0875289    0.6040601    1.4270452 
H    -4.2091200    0.7178474    0.1388670 
H    -5.2791565   -1.2397441    1.2098013 
H    -4.0975495   -0.5118929    2.3031912 
H    -3.7001212   -1.9973801    1.4325101 
H    -4.8927301   -1.2571303   -1.2483358 
H    -3.5729020   -0.3570118   -1.9832055 
H    -3.2412005   -1.8770809   -1.1422110 
H    -3.3141872    3.3247363   -1.3916722 
C    -0.0715230   -3.7596276   -0.4344685 
O     0.9864783   -4.0938530   -0.7596843 
O    -1.1387651   -3.4742756   -0.0889739 
